REMARK SMILES C[C@H]([NH2+]Cc1ccc(OCc2cccc(F)c2)cc1)C(N)=O
REMARK SMILES IDX 5 1 6 2 7 3 8 4 18 5 19 6 4 7 3 8 2 11 1 12 20 13 21 14
REMARK SMILES IDX 22 15 9 18 10 19 11 20 12 21 17 22 13 23 15 24 14 25 16 26
REMARK H PARENT 3 9 3 10 21 16 21 17
ROOT
ATOM      1  C   UNL     1      -1.604  -0.715   0.446  1.00  0.00     0.006 A 
ATOM      2  C   UNL     1      -0.977  -0.554  -0.798  1.00  0.00     0.013 A 
ATOM      3  C   UNL     1       0.413  -0.413  -0.888  1.00  0.00     0.047 A 
ATOM      4  C   UNL     1       1.194  -0.425   0.268  1.00  0.00     0.119 A 
ATOM      5  C   UNL     1       0.572  -0.576   1.509  1.00  0.00     0.047 A 
ATOM      6  C   UNL     1      -0.815  -0.717   1.602  1.00  0.00     0.013 A 
ENDROOT
BRANCH   1   7
ATOM      7  C   UNL     1      -3.105  -0.848   0.536  1.00  0.00     0.297 C 
BRANCH   7   8
ATOM      8  N   UNL     1      -3.739   0.470   0.419  1.00  0.00    -0.333 N 
ATOM      9  H   UNL     1      -3.366   1.085   1.142  1.00  0.00     0.347 HD
ATOM     10  H   UNL     1      -3.539   0.845  -0.508  1.00  0.00     0.347 HD
BRANCH   8  11
ATOM     11  C   UNL     1      -5.212   0.370   0.580  1.00  0.00     0.269 C 
ATOM     12  C   UNL     1      -5.789   1.767   0.793  1.00  0.00     0.086 C 
BRANCH  11  13
ATOM     13  C   UNL     1      -5.840  -0.250  -0.680  1.00  0.00     0.275 C 
ATOM     14  N   UNL     1      -5.350   0.236  -1.862  1.00  0.00    -0.365 N 
ATOM     15  O   UNL     1      -6.731  -1.091  -0.653  1.00  0.00    -0.268 OA
ATOM     16  H   UNL     1      -4.634   0.912  -1.858  1.00  0.00     0.159 HD
ATOM     17  H   UNL     1      -5.714  -0.090  -2.717  1.00  0.00     0.159 HD
ENDBRANCH  11  13
ENDBRANCH   8  11
ENDBRANCH   7   8
ENDBRANCH   1   7
BRANCH   4  18
ATOM     18  O   UNL     1       2.554  -0.297   0.325  1.00  0.00    -0.489 OA
BRANCH  18  19
ATOM     19  C   UNL     1       3.244  -0.151  -0.913  1.00  0.00     0.265 C 
BRANCH  19  20
ATOM     20  C   UNL     1       4.717  -0.028  -0.611  1.00  0.00    -0.008 A 
ATOM     21  C   UNL     1       5.268   1.212  -0.247  1.00  0.00     0.007 A 
ATOM     22  C   UNL     1       5.551  -1.153  -0.649  1.00  0.00     0.046 A 
ATOM     23  C   UNL     1       6.628   1.328   0.050  1.00  0.00     0.003 A 
ATOM     24  C   UNL     1       6.904  -1.026  -0.352  1.00  0.00     0.123 A 
ATOM     25  C   UNL     1       7.450   0.205  -0.006  1.00  0.00     0.039 A 
ATOM     26  F   UNL     1       7.693  -2.107  -0.398  1.00  0.00    -0.207 F 
ENDBRANCH  19  20
ENDBRANCH  18  19
ENDBRANCH   4  18
TORSDOF 7
