REMARK SMILES CN(C)c1ccc(-c2oc3cccc(O)c3c(=O)c2O)cc1C(F)F
REMARK SMILES IDX 8 1 9 2 10 3 11 4 12 5 13 6 14 7 16 8 17 9 18 10 19 11 7 12
REMARK SMILES IDX 4 13 5 14 22 15 6 16 21 17 2 18 1 19 3 20 23 21 24 22 25 23
REMARK SMILES IDX 20 24 15 26
REMARK H PARENT 20 25 15 27
ROOT
ATOM      1  C   UNL     1       1.252   0.468   0.034  1.00  0.00     0.180 A 
ATOM      2  O   UNL     1       1.850  -0.605  -0.617  1.00  0.00    -0.452 OA
ATOM      3  C   UNL     1       3.217  -0.641  -0.719  1.00  0.00     0.142 A 
ATOM      4  C   UNL     1       3.773  -1.732  -1.389  1.00  0.00     0.048 A 
ATOM      5  C   UNL     1       5.159  -1.831  -1.528  1.00  0.00     0.008 A 
ATOM      6  C   UNL     1       5.988  -0.841  -0.997  1.00  0.00     0.047 A 
ATOM      7  C   UNL     1       5.431   0.246  -0.328  1.00  0.00     0.130 A 
ATOM      8  C   UNL     1       4.043   0.345  -0.190  1.00  0.00     0.110 A 
ATOM      9  C   UNL     1       3.416   1.469   0.506  1.00  0.00     0.238 A 
ATOM     10  O   UNL     1       4.078   2.376   1.006  1.00  0.00    -0.285 OA
ATOM     11  C   UNL     1       1.938   1.482   0.594  1.00  0.00     0.208 A 
ENDROOT
BRANCH   1  12
ATOM     12  C   UNL     1      -0.223   0.368   0.071  1.00  0.00     0.022 A 
ATOM     13  C   UNL     1      -3.055   0.105   0.095  1.00  0.00     0.045 A 
ATOM     14  C   UNL     1      -2.439   1.320  -0.243  1.00  0.00     0.027 A 
ATOM     15  C   UNL     1      -2.235  -0.992   0.421  1.00  0.00     0.042 A 
ATOM     16  C   UNL     1      -1.045   1.449  -0.255  1.00  0.00     0.014 A 
ATOM     17  C   UNL     1      -0.833  -0.852   0.395  1.00  0.00     0.024 A 
BRANCH  13  18
ATOM     18  N   UNL     1      -4.458  -0.054   0.092  1.00  0.00    -0.377 N 
ATOM     19  C   UNL     1      -5.200   1.031   0.742  1.00  0.00     0.143 C 
ATOM     20  C   UNL     1      -4.945  -0.374  -1.258  1.00  0.00     0.143 C 
ENDBRANCH  13  18
BRANCH  15  21
ATOM     21  C   UNL     1      -2.834  -2.328   0.776  1.00  0.00     0.375 C 
ATOM     22  F   UNL     1      -1.989  -3.104   1.522  1.00  0.00    -0.205 F 
ATOM     23  F   UNL     1      -3.124  -3.079  -0.326  1.00  0.00    -0.205 F 
ENDBRANCH  15  21
ENDBRANCH   1  12
BRANCH  11  24
ATOM     24  O   UNL     1       1.357   2.541   1.268  1.00  0.00    -0.502 OA
ATOM     25  H   UNL     1       1.896   3.214   1.634  1.00  0.00     0.293 HD
ENDBRANCH  11  24
BRANCH   7  26
ATOM     26  O   UNL     1       6.300   1.179   0.168  1.00  0.00    -0.507 OA
ATOM     27  H   UNL     1       7.223   1.069   0.050  1.00  0.00     0.293 HD
ENDBRANCH   7  26
TORSDOF 5
