REMARK SMILES CCCc1ccc(-c2oc3cccc(O)c3c(=O)c2O)cc1C
REMARK SMILES IDX 4 1 5 2 6 3 7 4 21 5 22 6 23 7 3 8 2 9 1 10 8 11 9 12 19 13
REMARK SMILES IDX 10 14 17 15 11 16 16 17 18 18 12 19 14 20 13 21 20 22 15 24
REMARK H PARENT 20 23 15 25
ROOT
ATOM      1  C   UNL     1      -2.816  -0.136  -0.036  1.00  0.00    -0.045 A 
ATOM      2  C   UNL     1      -2.273  -0.354   1.241  1.00  0.00     0.005 A 
ATOM      3  C   UNL     1      -0.898  -0.525   1.419  1.00  0.00     0.012 A 
ATOM      4  C   UNL     1      -0.028  -0.488   0.326  1.00  0.00     0.021 A 
ATOM      5  C   UNL     1      -0.568  -0.255  -0.948  1.00  0.00     0.015 A 
ATOM      6  C   UNL     1      -1.950  -0.073  -1.145  1.00  0.00    -0.047 A 
ATOM      7  C   UNL     1      -2.460   0.155  -2.541  1.00  0.00     0.044 C 
ENDROOT
BRANCH   1   8
ATOM      8  C   UNL     1      -4.312   0.052  -0.158  1.00  0.00     0.035 C 
BRANCH   8   9
ATOM      9  C   UNL     1      -4.721   1.511   0.053  1.00  0.00     0.001 C 
ATOM     10  C   UNL     1      -6.224   1.691  -0.086  1.00  0.00     0.004 C 
ENDBRANCH   8   9
ENDBRANCH   1   8
BRANCH   4  11
ATOM     11  C   UNL     1       1.434  -0.642   0.489  1.00  0.00     0.180 A 
ATOM     12  O   UNL     1       2.159   0.321  -0.204  1.00  0.00    -0.452 OA
ATOM     13  C   UNL     1       1.996  -1.626   1.215  1.00  0.00     0.208 A 
ATOM     14  C   UNL     1       3.528   0.295  -0.139  1.00  0.00     0.142 A 
ATOM     15  C   UNL     1       3.474  -1.688   1.297  1.00  0.00     0.238 A 
ATOM     16  C   UNL     1       4.215   1.289  -0.838  1.00  0.00     0.048 A 
ATOM     17  C   UNL     1       4.235  -0.664   0.579  1.00  0.00     0.110 A 
ATOM     18  O   UNL     1       4.026  -2.573   1.947  1.00  0.00    -0.285 OA
ATOM     19  C   UNL     1       5.611   1.319  -0.815  1.00  0.00     0.008 A 
ATOM     20  C   UNL     1       5.632  -0.635   0.602  1.00  0.00     0.130 A 
ATOM     21  C   UNL     1       6.320   0.355  -0.095  1.00  0.00     0.047 A 
BRANCH  13  22
ATOM     22  O   UNL     1       1.288  -2.606   1.887  1.00  0.00    -0.502 OA
ATOM     23  H   UNL     1       1.745  -3.262   2.375  1.00  0.00     0.293 HD
ENDBRANCH  13  22
BRANCH  20  24
ATOM     24  O   UNL     1       6.388  -1.548   1.285  1.00  0.00    -0.507 OA
ATOM     25  H   UNL     1       7.323  -1.487   1.270  1.00  0.00     0.293 HD
ENDBRANCH  20  24
ENDBRANCH   4  11
TORSDOF 5
