REMARK SMILES CN(C)c1ccc(-c2oc3cccc(O)c3c(=O)c2O)cc1C(F)(F)F
REMARK SMILES IDX 8 1 9 2 10 3 11 4 12 5 13 6 14 7 16 8 17 9 18 10 19 11 7 12
REMARK SMILES IDX 4 13 5 14 22 15 6 16 21 17 2 18 1 19 3 20 23 21 24 22 25 23
REMARK SMILES IDX 26 24 20 25 15 27
REMARK H PARENT 20 26 15 28
ROOT
ATOM      1  C   UNL     1      -1.258  -0.435  -0.023  1.00  0.00     0.180 A 
ATOM      2  O   UNL     1      -1.848   0.545  -0.813  1.00  0.00    -0.452 OA
ATOM      3  C   UNL     1      -3.213   0.559  -0.945  1.00  0.00     0.142 A 
ATOM      4  C   UNL     1      -3.761   1.553  -1.757  1.00  0.00     0.048 A 
ATOM      5  C   UNL     1      -5.145   1.623  -1.933  1.00  0.00     0.008 A 
ATOM      6  C   UNL     1      -5.979   0.701  -1.298  1.00  0.00     0.047 A 
ATOM      7  C   UNL     1      -5.429  -0.289  -0.488  1.00  0.00     0.130 A 
ATOM      8  C   UNL     1      -4.045  -0.360  -0.313  1.00  0.00     0.110 A 
ATOM      9  C   UNL     1      -3.426  -1.384   0.530  1.00  0.00     0.238 A 
ATOM     10  O   UNL     1      -4.093  -2.227   1.127  1.00  0.00    -0.285 OA
ATOM     11  C   UNL     1      -1.950  -1.376   0.646  1.00  0.00     0.208 A 
ENDROOT
BRANCH   1  12
ATOM     12  C   UNL     1       0.215  -0.322   0.028  1.00  0.00     0.022 A 
ATOM     13  C   UNL     1       3.042  -0.038   0.075  1.00  0.00     0.048 A 
ATOM     14  C   UNL     1       2.438  -1.289  -0.127  1.00  0.00     0.027 A 
ATOM     15  C   UNL     1       2.217   1.087   0.254  1.00  0.00     0.080 A 
ATOM     16  C   UNL     1       1.047  -1.429  -0.155  1.00  0.00     0.014 A 
ATOM     17  C   UNL     1       0.814   0.931   0.223  1.00  0.00     0.027 A 
BRANCH  13  18
ATOM     18  N   UNL     1       4.441   0.113   0.114  1.00  0.00    -0.377 N 
ATOM     19  C   UNL     1       5.108  -0.315  -1.119  1.00  0.00     0.143 C 
ATOM     20  C   UNL     1       5.023  -0.451   1.337  1.00  0.00     0.143 C 
ENDBRANCH  13  18
BRANCH  15  21
ATOM     21  C   UNL     1       2.811   2.457   0.470  1.00  0.00     0.418 C 
ATOM     22  F   UNL     1       3.580   2.551   1.593  1.00  0.00    -0.166 F 
ATOM     23  F   UNL     1       1.855   3.427   0.622  1.00  0.00    -0.166 F 
ATOM     24  F   UNL     1       3.582   2.892  -0.568  1.00  0.00    -0.166 F 
ENDBRANCH  15  21
ENDBRANCH   1  12
BRANCH  11  25
ATOM     25  O   UNL     1      -1.376  -2.338   1.457  1.00  0.00    -0.502 OA
ATOM     26  H   UNL     1      -1.918  -2.965   1.895  1.00  0.00     0.293 HD
ENDBRANCH  11  25
BRANCH   7  27
ATOM     27  O   UNL     1      -6.304  -1.159   0.104  1.00  0.00    -0.507 OA
ATOM     28  H   UNL     1      -7.225  -1.071  -0.045  1.00  0.00     0.293 HD
ENDBRANCH   7  27
TORSDOF 5
