REMARK SMILES CCc1cc(-c2oc3cccc(O)c3c(=O)c2O)ccc1N1CCCCC1
REMARK SMILES IDX 6 1 7 2 8 3 9 4 10 5 11 6 12 7 14 8 15 9 16 10 17 11 5 12
REMARK SMILES IDX 3 13 4 14 21 15 20 16 19 17 2 18 1 19 22 20 23 21 27 22
REMARK SMILES IDX 24 23 26 24 25 25 18 26 13 28
REMARK H PARENT 18 27 13 29
ROOT
ATOM      1  C   UNL     1       2.463   0.138   0.469  1.00  0.00     0.180 A 
ATOM      2  O   UNL     1       3.106   0.368  -0.742  1.00  0.00    -0.452 OA
ATOM      3  C   UNL     1       4.477   0.382  -0.775  1.00  0.00     0.142 A 
ATOM      4  C   UNL     1       5.079   0.629  -2.009  1.00  0.00     0.048 A 
ATOM      5  C   UNL     1       6.471   0.655  -2.112  1.00  0.00     0.008 A 
ATOM      6  C   UNL     1       7.261   0.433  -0.982  1.00  0.00     0.047 A 
ATOM      7  C   UNL     1       6.657   0.187   0.249  1.00  0.00     0.130 A 
ATOM      8  C   UNL     1       5.264   0.162   0.351  1.00  0.00     0.110 A 
ATOM      9  C   UNL     1       4.589  -0.094   1.625  1.00  0.00     0.238 A 
ATOM     10  O   UNL     1       5.215  -0.304   2.662  1.00  0.00    -0.285 OA
ATOM     11  C   UNL     1       3.108  -0.093   1.628  1.00  0.00     0.208 A 
ENDROOT
BRANCH   1  12
ATOM     12  C   UNL     1       0.990   0.150   0.349  1.00  0.00     0.022 A 
ATOM     13  C   UNL     1      -1.029  -0.521  -0.875  1.00  0.00    -0.024 A 
ATOM     14  C   UNL     1       0.370  -0.531  -0.709  1.00  0.00     0.018 A 
ATOM     15  C   UNL     1      -1.834   0.180   0.045  1.00  0.00     0.040 A 
ATOM     16  C   UNL     1      -1.208   0.873   1.092  1.00  0.00     0.027 A 
ATOM     17  C   UNL     1       0.182   0.862   1.240  1.00  0.00     0.014 A 
BRANCH  13  18
ATOM     18  C   UNL     1      -1.631  -1.299  -2.024  1.00  0.00     0.034 C 
ATOM     19  C   UNL     1      -2.031  -2.708  -1.612  1.00  0.00     0.009 C 
ENDBRANCH  13  18
BRANCH  15  20
ATOM     20  N   UNL     1      -3.236   0.182  -0.120  1.00  0.00    -0.371 N 
ATOM     21  C   UNL     1      -3.964  -0.322   1.055  1.00  0.00     0.116 C 
ATOM     22  C   UNL     1      -3.728   1.480  -0.608  1.00  0.00     0.116 C 
ATOM     23  C   UNL     1      -5.436  -0.510   0.683  1.00  0.00     0.021 C 
ATOM     24  C   UNL     1      -5.197   1.338  -1.009  1.00  0.00     0.021 C 
ATOM     25  C   UNL     1      -6.037   0.786   0.142  1.00  0.00     0.004 C 
ENDBRANCH  15  20
ENDBRANCH   1  12
BRANCH  11  26
ATOM     26  O   UNL     1       2.482  -0.349   2.834  1.00  0.00    -0.502 OA
ATOM     27  H   UNL     1       2.994  -0.502   3.604  1.00  0.00     0.293 HD
ENDBRANCH  11  26
BRANCH   7  28
ATOM     28  O   UNL     1       7.490  -0.022   1.314  1.00  0.00    -0.507 OA
ATOM     29  H   UNL     1       8.419   0.005   1.195  1.00  0.00     0.293 HD
ENDBRANCH   7  28
TORSDOF 5
