REMARK SMILES Cc1cc(-c2oc3cccc(O)c3c(=O)c2O)ccc1N1CCCCC1
REMARK SMILES IDX 5 1 6 2 7 3 8 4 9 5 10 6 11 7 13 8 14 9 15 10 16 11 4 12
REMARK SMILES IDX 2 13 3 14 20 15 19 16 18 17 1 18 21 19 22 20 26 21 23 22
REMARK SMILES IDX 25 23 24 24 17 25 12 27
REMARK H PARENT 17 26 12 28
ROOT
ATOM      1  C   UNL     1       2.340  -0.092  -0.457  1.00  0.00     0.180 A 
ATOM      2  O   UNL     1       2.930   0.795   0.436  1.00  0.00    -0.452 OA
ATOM      3  C   UNL     1       4.295   0.917   0.448  1.00  0.00     0.142 A 
ATOM      4  C   UNL     1       4.843   1.829   1.351  1.00  0.00     0.048 A 
ATOM      5  C   UNL     1       6.227   2.000   1.415  1.00  0.00     0.008 A 
ATOM      6  C   UNL     1       7.064   1.260   0.577  1.00  0.00     0.047 A 
ATOM      7  C   UNL     1       6.515   0.351  -0.324  1.00  0.00     0.130 A 
ATOM      8  C   UNL     1       5.129   0.180  -0.388  1.00  0.00     0.110 A 
ATOM      9  C   UNL     1       4.511  -0.765  -1.319  1.00  0.00     0.238 A 
ATOM     10  O   UNL     1       5.181  -1.457  -2.084  1.00  0.00    -0.285 OA
ATOM     11  C   UNL     1       3.034  -0.866  -1.313  1.00  0.00     0.208 A 
ENDROOT
BRANCH   1  12
ATOM     12  C   UNL     1       0.866  -0.117  -0.353  1.00  0.00     0.022 A 
ATOM     13  C   UNL     1      -1.145  -0.172   1.047  1.00  0.00    -0.027 A 
ATOM     14  C   UNL     1       0.255  -0.173   0.909  1.00  0.00     0.017 A 
ATOM     15  C   UNL     1      -1.962  -0.106  -0.098  1.00  0.00     0.040 A 
ATOM     16  C   UNL     1      -1.347  -0.046  -1.358  1.00  0.00     0.027 A 
ATOM     17  C   UNL     1       0.046  -0.045  -1.484  1.00  0.00     0.014 A 
ATOM     18  C   UNL     1      -1.754  -0.239   2.422  1.00  0.00     0.046 C 
BRANCH  15  19
ATOM     19  N   UNL     1      -3.365  -0.123   0.055  1.00  0.00    -0.371 N 
ATOM     20  C   UNL     1      -4.036   1.033  -0.560  1.00  0.00     0.116 C 
ATOM     21  C   UNL     1      -3.938  -1.419  -0.343  1.00  0.00     0.116 C 
ATOM     22  C   UNL     1      -5.505   1.040  -0.135  1.00  0.00     0.021 C 
ATOM     23  C   UNL     1      -5.407  -1.467   0.078  1.00  0.00     0.021 C 
ATOM     24  C   UNL     1      -6.186  -0.281  -0.489  1.00  0.00     0.004 C 
ENDBRANCH  15  19
ENDBRANCH   1  12
BRANCH  11  25
ATOM     25  O   UNL     1       2.462  -1.772  -2.188  1.00  0.00    -0.502 OA
ATOM     26  H   UNL     1       3.006  -2.279  -2.758  1.00  0.00     0.293 HD
ENDBRANCH  11  25
BRANCH   7  27
ATOM     27  O   UNL     1       7.391  -0.341  -1.115  1.00  0.00    -0.507 OA
ATOM     28  H   UNL     1       8.312  -0.192  -1.035  1.00  0.00     0.293 HD
ENDBRANCH   7  27
TORSDOF 4
