REMARK SMILES Cc1ccc(-c2oc3cccc(O)c3c(=O)c2O)cc1C(C)C
REMARK SMILES IDX 6 1 7 2 8 3 9 4 10 5 11 6 12 7 14 8 15 9 16 10 17 11 5 12
REMARK SMILES IDX 2 13 3 14 20 15 4 16 19 17 1 18 21 19 22 20 23 21 18 22
REMARK SMILES IDX 13 24
REMARK H PARENT 18 23 13 25
ROOT
ATOM      1  C   UNL     1       1.116   0.086   0.491  1.00  0.00     0.180 A 
ATOM      2  O   UNL     1       2.122  -0.792   0.104  1.00  0.00    -0.452 OA
ATOM      3  C   UNL     1       3.412  -0.333   0.030  1.00  0.00     0.142 A 
ATOM      4  C   UNL     1       4.387  -1.245  -0.377  1.00  0.00     0.048 A 
ATOM      5  C   UNL     1       5.721  -0.842  -0.471  1.00  0.00     0.008 A 
ATOM      6  C   UNL     1       6.080   0.471  -0.158  1.00  0.00     0.047 A 
ATOM      7  C   UNL     1       5.105   1.378   0.248  1.00  0.00     0.130 A 
ATOM      8  C   UNL     1       3.770   0.975   0.342  1.00  0.00     0.110 A 
ATOM      9  C   UNL     1       2.715   1.897   0.764  1.00  0.00     0.238 A 
ATOM     10  O   UNL     1       2.952   3.065   1.064  1.00  0.00    -0.285 OA
ATOM     11  C   UNL     1       1.330   1.373   0.823  1.00  0.00     0.208 A 
ENDROOT
BRANCH   1  12
ATOM     12  C   UNL     1      -0.219  -0.548   0.523  1.00  0.00     0.022 A 
ATOM     13  C   UNL     1      -2.753  -1.816   0.554  1.00  0.00    -0.048 A 
ATOM     14  C   UNL     1      -1.629  -2.425   1.137  1.00  0.00     0.004 A 
ATOM     15  C   UNL     1      -2.613  -0.554  -0.061  1.00  0.00    -0.042 A 
ATOM     16  C   UNL     1      -0.380  -1.801   1.119  1.00  0.00     0.012 A 
ATOM     17  C   UNL     1      -1.338   0.055  -0.069  1.00  0.00     0.016 A 
ATOM     18  C   UNL     1      -4.069  -2.542   0.611  1.00  0.00     0.044 C 
BRANCH  15  19
ATOM     19  C   UNL     1      -3.788   0.166  -0.714  1.00  0.00     0.013 C 
ATOM     20  C   UNL     1      -3.567   0.351  -2.219  1.00  0.00     0.012 C 
ATOM     21  C   UNL     1      -4.076   1.509  -0.035  1.00  0.00     0.012 C 
ENDBRANCH  15  19
ENDBRANCH   1  12
BRANCH  11  22
ATOM     22  O   UNL     1       0.344   2.249   1.236  1.00  0.00    -0.502 OA
ATOM     23  H   UNL     1       0.563   3.134   1.452  1.00  0.00     0.293 HD
ENDBRANCH  11  22
BRANCH   7  24
ATOM     24  O   UNL     1       5.525   2.647   0.541  1.00  0.00    -0.507 OA
ATOM     25  H   UNL     1       6.432   2.869   0.463  1.00  0.00     0.293 HD
ENDBRANCH   7  24
TORSDOF 4
