REMARK SMILES CCc1ccc(-c2oc3cccc(O)c3c(=O)c2O)cc1C
REMARK SMILES IDX 7 1 8 2 9 3 10 4 11 5 12 6 13 7 15 8 16 9 17 10 18 11 6 12
REMARK SMILES IDX 3 13 4 14 21 15 5 16 20 17 22 18 2 19 1 20 19 21 14 23
REMARK H PARENT 19 22 14 24
ROOT
ATOM      1  C   UNL     1       0.970   0.165   0.673  1.00  0.00     0.180 A 
ATOM      2  O   UNL     1       1.566   0.037  -0.576  1.00  0.00    -0.452 OA
ATOM      3  C   UNL     1       2.933   0.076  -0.666  1.00  0.00     0.142 A 
ATOM      4  C   UNL     1       3.488  -0.042  -1.941  1.00  0.00     0.048 A 
ATOM      5  C   UNL     1       4.875  -0.011  -2.103  1.00  0.00     0.008 A 
ATOM      6  C   UNL     1       5.707   0.137  -0.991  1.00  0.00     0.047 A 
ATOM      7  C   UNL     1       5.150   0.255   0.280  1.00  0.00     0.130 A 
ATOM      8  C   UNL     1       3.762   0.225   0.442  1.00  0.00     0.110 A 
ATOM      9  C   UNL     1       3.137   0.345   1.759  1.00  0.00     0.238 A 
ATOM     10  O   UNL     1       3.802   0.471   2.786  1.00  0.00    -0.285 OA
ATOM     11  C   UNL     1       1.658   0.309   1.821  1.00  0.00     0.208 A 
ENDROOT
BRANCH   1  12
ATOM     12  C   UNL     1      -0.506   0.104   0.615  1.00  0.00     0.021 A 
ATOM     13  C   UNL     1      -3.331  -0.029   0.427  1.00  0.00    -0.045 A 
ATOM     14  C   UNL     1      -2.701   0.971   1.185  1.00  0.00     0.005 A 
ATOM     15  C   UNL     1      -2.536  -0.964  -0.264  1.00  0.00    -0.047 A 
ATOM     16  C   UNL     1      -1.309   1.038   1.275  1.00  0.00     0.012 A 
ATOM     17  C   UNL     1      -1.135  -0.887  -0.156  1.00  0.00     0.015 A 
ATOM     18  C   UNL     1      -3.140  -2.064  -1.093  1.00  0.00     0.044 C 
BRANCH  13  19
ATOM     19  C   UNL     1      -4.842  -0.038   0.362  1.00  0.00     0.032 C 
ATOM     20  C   UNL     1      -5.370   0.862  -0.745  1.00  0.00     0.009 C 
ENDBRANCH  13  19
ENDBRANCH   1  12
BRANCH  11  21
ATOM     21  O   UNL     1       1.079   0.411   3.073  1.00  0.00    -0.502 OA
ATOM     22  H   UNL     1       1.618   0.509   3.832  1.00  0.00     0.293 HD
ENDBRANCH  11  21
BRANCH   7  23
ATOM     23  O   UNL     1       6.022   0.396   1.325  1.00  0.00    -0.507 OA
ATOM     24  H   UNL     1       6.945   0.411   1.166  1.00  0.00     0.293 HD
ENDBRANCH   7  23
TORSDOF 4
