REMARK SMILES CCc1ccc(-c2oc3cccc(O)c3c(=O)c2O)cc1CC
REMARK SMILES IDX 7 1 8 2 9 3 10 4 11 5 12 6 13 7 15 8 16 9 17 10 18 11 6 12
REMARK SMILES IDX 3 13 4 14 21 15 5 16 20 17 2 18 1 19 22 20 23 21 19 22 14 24
REMARK H PARENT 19 23 14 25
ROOT
ATOM      1  C   UNL     1       1.271   0.241   0.277  1.00  0.00     0.180 A 
ATOM      2  O   UNL     1       2.080  -0.883   0.158  1.00  0.00    -0.452 OA
ATOM      3  C   UNL     1       3.436  -0.715   0.037  1.00  0.00     0.142 A 
ATOM      4  C   UNL     1       4.208  -1.869  -0.096  1.00  0.00     0.048 A 
ATOM      5  C   UNL     1       5.596  -1.768  -0.221  1.00  0.00     0.008 A 
ATOM      6  C   UNL     1       6.210  -0.514  -0.213  1.00  0.00     0.047 A 
ATOM      7  C   UNL     1       5.437   0.636  -0.080  1.00  0.00     0.130 A 
ATOM      8  C   UNL     1       4.048   0.535   0.044  1.00  0.00     0.110 A 
ATOM      9  C   UNL     1       3.199   1.718   0.186  1.00  0.00     0.238 A 
ATOM     10  O   UNL     1       3.666   2.855   0.209  1.00  0.00    -0.285 OA
ATOM     11  C   UNL     1       1.738   1.503   0.303  1.00  0.00     0.208 A 
ENDROOT
BRANCH   1  12
ATOM     12  C   UNL     1      -0.164  -0.095   0.399  1.00  0.00     0.022 A 
ATOM     13  C   UNL     1      -2.904  -0.796   0.624  1.00  0.00    -0.045 A 
ATOM     14  C   UNL     1      -1.920  -1.455   1.381  1.00  0.00     0.005 A 
ATOM     15  C   UNL     1      -2.508   0.214  -0.275  1.00  0.00    -0.044 A 
ATOM     16  C   UNL     1      -0.571  -1.111   1.268  1.00  0.00     0.012 A 
ATOM     17  C   UNL     1      -1.142   0.551  -0.370  1.00  0.00     0.016 A 
BRANCH  13  18
ATOM     18  C   UNL     1      -4.341  -1.231   0.795  1.00  0.00     0.032 C 
ATOM     19  C   UNL     1      -4.706  -2.371  -0.145  1.00  0.00     0.009 C 
ENDBRANCH  13  18
BRANCH  15  20
ATOM     20  C   UNL     1      -3.488   0.987  -1.129  1.00  0.00     0.032 C 
ATOM     21  C   UNL     1      -3.970   2.253  -0.435  1.00  0.00     0.009 C 
ENDBRANCH  15  20
ENDBRANCH   1  12
BRANCH  11  22
ATOM     22  O   UNL     1       0.947   2.627   0.450  1.00  0.00    -0.502 OA
ATOM     23  H   UNL     1       1.339   3.478   0.459  1.00  0.00     0.293 HD
ENDBRANCH  11  22
BRANCH   7  24
ATOM     24  O   UNL     1       6.102   1.831  -0.080  1.00  0.00    -0.507 OA
ATOM     25  H   UNL     1       7.035   1.848  -0.166  1.00  0.00     0.293 HD
ENDBRANCH   7  24
TORSDOF 5
