REMARK SMILES Cc1cc(-c2oc3cccc(O)c3c(=O)c2O)ccc1CCF
REMARK SMILES IDX 1 1 2 2 3 3 4 4 18 5 19 6 20 7 21 8 22 9 23 10 5 11 6 12
REMARK SMILES IDX 16 13 7 14 14 15 8 16 13 17 15 18 9 19 11 20 10 21 17 22
REMARK SMILES IDX 12 24
REMARK H PARENT 17 23 12 25
ROOT
ATOM      1  C   UNL     1       3.661   0.094  -2.062  1.00  0.00     0.044 C 
ATOM      2  C   UNL     1       2.736   0.235  -0.884  1.00  0.00    -0.047 A 
ATOM      3  C   UNL     1       1.372  -0.072  -1.055  1.00  0.00     0.015 A 
ATOM      4  C   UNL     1       0.454   0.043  -0.001  1.00  0.00     0.021 A 
ATOM      5  C   UNL     1       0.917   0.495   1.238  1.00  0.00     0.012 A 
ATOM      6  C   UNL     1       2.266   0.810   1.423  1.00  0.00     0.005 A 
ATOM      7  C   UNL     1       3.187   0.689   0.370  1.00  0.00    -0.042 A 
ENDROOT
BRANCH   7   8
ATOM      8  C   UNL     1       4.636   1.023   0.640  1.00  0.00     0.070 C 
BRANCH   8   9
ATOM      9  C   UNL     1       5.411  -0.172   1.171  1.00  0.00     0.219 C 
ATOM     10  F   UNL     1       6.701   0.207   1.388  1.00  0.00    -0.251 F 
ENDBRANCH   8   9
ENDBRANCH   7   8
BRANCH   4  11
ATOM     11  C   UNL     1      -0.982  -0.258  -0.184  1.00  0.00     0.180 A 
ATOM     12  O   UNL     1      -1.812   0.731   0.331  1.00  0.00    -0.452 OA
ATOM     13  C   UNL     1      -1.430  -1.385  -0.769  1.00  0.00     0.208 A 
ATOM     14  C   UNL     1      -3.170   0.578   0.226  1.00  0.00     0.142 A 
ATOM     15  C   UNL     1      -2.893  -1.586  -0.887  1.00  0.00     0.238 A 
ATOM     16  C   UNL     1      -3.965   1.602   0.743  1.00  0.00     0.048 A 
ATOM     17  C   UNL     1      -3.765  -0.535  -0.359  1.00  0.00     0.110 A 
ATOM     18  O   UNL     1      -3.342  -2.603  -1.411  1.00  0.00    -0.285 OA
ATOM     19  C   UNL     1      -5.357   1.508   0.670  1.00  0.00     0.008 A 
ATOM     20  C   UNL     1      -5.158  -0.631  -0.431  1.00  0.00     0.130 A 
ATOM     21  C   UNL     1      -5.953   0.390   0.083  1.00  0.00     0.047 A 
BRANCH  13  22
ATOM     22  O   UNL     1      -0.615  -2.389  -1.259  1.00  0.00    -0.502 OA
ATOM     23  H   UNL     1      -0.995  -3.148  -1.655  1.00  0.00     0.293 HD
ENDBRANCH  13  22
BRANCH  20  24
ATOM     24  O   UNL     1      -5.806  -1.697  -0.991  1.00  0.00    -0.507 OA
ATOM     25  H   UNL     1      -6.743  -1.715  -1.015  1.00  0.00     0.293 HD
ENDBRANCH  20  24
ENDBRANCH   4  11
TORSDOF 5
