REMARK SMILES C[NH+]1CCN(c2cc(-c3oc4cccc(O)c4c(=O)c3O)ccc2C(F)(F)F)CC1
REMARK SMILES IDX 9 1 10 2 11 3 12 4 13 5 14 6 15 7 17 8 18 9 19 10 20 11 8 12
REMARK SMILES IDX 6 13 7 14 24 15 23 16 22 17 5 18 2 19 3 20 30 21 4 22 29 23
REMARK SMILES IDX 1 24 25 26 26 27 27 28 28 29 21 30 16 32
REMARK H PARENT 2 25 21 31 16 33
ROOT
ATOM      1  C   UNL     1       2.320  -0.214  -0.367  1.00  0.00     0.180 A 
ATOM      2  O   UNL     1       3.326   0.730  -0.199  1.00  0.00    -0.452 OA
ATOM      3  C   UNL     1       4.504   0.346   0.388  1.00  0.00     0.142 A 
ATOM      4  C   UNL     1       5.481   1.330   0.550  1.00  0.00     0.048 A 
ATOM      5  C   UNL     1       6.705   1.005   1.139  1.00  0.00     0.008 A 
ATOM      6  C   UNL     1       6.952  -0.302   1.565  1.00  0.00     0.047 A 
ATOM      7  C   UNL     1       5.976  -1.281   1.402  1.00  0.00     0.130 A 
ATOM      8  C   UNL     1       4.751  -0.956   0.813  1.00  0.00     0.110 A 
ATOM      9  C   UNL     1       3.699  -1.955   0.622  1.00  0.00     0.238 A 
ATOM     10  O   UNL     1       3.843  -3.127   0.964  1.00  0.00    -0.285 OA
ATOM     11  C   UNL     1       2.434  -1.506  -0.005  1.00  0.00     0.208 A 
ENDROOT
BRANCH   1  12
ATOM     12  C   UNL     1       1.111   0.341  -1.010  1.00  0.00     0.023 A 
ATOM     13  C   UNL     1      -1.325   0.655  -1.086  1.00  0.00     0.050 A 
ATOM     14  C   UNL     1      -0.171   0.114  -0.488  1.00  0.00     0.038 A 
ATOM     15  C   UNL     1      -1.184   1.457  -2.232  1.00  0.00     0.079 A 
ATOM     16  C   UNL     1       0.102   1.696  -2.751  1.00  0.00     0.016 A 
ATOM     17  C   UNL     1       1.234   1.147  -2.146  1.00  0.00     0.013 A 
BRANCH  13  18
ATOM     18  N   UNL     1      -2.611   0.419  -0.568  1.00  0.00    -0.360 N 
ATOM     19  N   UNL     1      -4.722  -0.556   1.210  1.00  0.00    -0.334 N 
ATOM     20  C   UNL     1      -4.470  -1.159  -0.120  1.00  0.00     0.283 C 
ATOM     21  C   UNL     1      -4.306   0.866   1.187  1.00  0.00     0.283 C 
ATOM     22  C   UNL     1      -2.995  -1.012  -0.565  1.00  0.00     0.178 C 
ATOM     23  C   UNL     1      -2.829   1.042   0.759  1.00  0.00     0.178 C 
ATOM     24  C   UNL     1      -6.136  -0.670   1.565  1.00  0.00     0.332 C 
ATOM     25  H   UNL     1      -4.180  -1.055   1.916  1.00  0.00     0.347 HD
ENDBRANCH  13  18
BRANCH  15  26
ATOM     26  C   UNL     1      -2.392   2.060  -2.907  1.00  0.00     0.418 C 
ATOM     27  F   UNL     1      -2.062   2.812  -4.003  1.00  0.00    -0.166 F 
ATOM     28  F   UNL     1      -3.102   2.907  -2.106  1.00  0.00    -0.166 F 
ATOM     29  F   UNL     1      -3.280   1.135  -3.375  1.00  0.00    -0.166 F 
ENDBRANCH  15  26
ENDBRANCH   1  12
BRANCH  11  30
ATOM     30  O   UNL     1       1.451  -2.459  -0.193  1.00  0.00    -0.502 OA
ATOM     31  H   UNL     1       1.596  -3.343   0.083  1.00  0.00     0.293 HD
ENDBRANCH  11  30
BRANCH   7  32
ATOM     32  O   UNL     1       6.284  -2.540   1.840  1.00  0.00    -0.507 OA
ATOM     33  H   UNL     1       7.120  -2.709   2.229  1.00  0.00     0.293 HD
ENDBRANCH   7  32
TORSDOF 5
