REMARK SMILES Cc1ccc(-c2oc3cccc(O)c3c(=O)c2O)cc1N1CCCC1
REMARK SMILES IDX 6 1 7 2 8 3 9 4 10 5 11 6 12 7 14 8 15 9 16 10 17 11 5 12
REMARK SMILES IDX 2 13 3 14 20 15 4 16 19 17 1 18 21 19 22 20 25 21 23 22
REMARK SMILES IDX 24 23 18 24 13 26
REMARK H PARENT 18 25 13 27
ROOT
ATOM      1  C   UNL     1       1.519  -0.418  -0.142  1.00  0.00     0.180 A 
ATOM      2  O   UNL     1       2.582  -0.188   0.725  1.00  0.00    -0.452 OA
ATOM      3  C   UNL     1       3.782   0.228   0.207  1.00  0.00     0.142 A 
ATOM      4  C   UNL     1       4.816   0.462   1.115  1.00  0.00     0.048 A 
ATOM      5  C   UNL     1       6.064   0.885   0.654  1.00  0.00     0.008 A 
ATOM      6  C   UNL     1       6.279   1.073  -0.713  1.00  0.00     0.047 A 
ATOM      7  C   UNL     1       5.246   0.838  -1.616  1.00  0.00     0.130 A 
ATOM      8  C   UNL     1       3.996   0.415  -1.154  1.00  0.00     0.110 A 
ATOM      9  C   UNL     1       2.883   0.158  -2.069  1.00  0.00     0.238 A 
ATOM     10  O   UNL     1       2.996   0.294  -3.286  1.00  0.00    -0.285 OA
ATOM     11  C   UNL     1       1.597  -0.279  -1.478  1.00  0.00     0.208 A 
ENDROOT
BRANCH   1  12
ATOM     12  C   UNL     1       0.294  -0.860   0.558  1.00  0.00     0.023 A 
ATOM     13  C   UNL     1      -2.020  -1.694   1.944  1.00  0.00    -0.028 A 
ATOM     14  C   UNL     1      -0.772  -2.275   2.217  1.00  0.00     0.006 A 
ATOM     15  C   UNL     1      -2.122  -0.680   0.971  1.00  0.00     0.040 A 
ATOM     16  C   UNL     1       0.372  -1.857   1.536  1.00  0.00     0.012 A 
ATOM     17  C   UNL     1      -0.956  -0.279   0.292  1.00  0.00     0.038 A 
ATOM     18  C   UNL     1      -3.235  -2.170   2.694  1.00  0.00     0.046 C 
BRANCH  15  19
ATOM     19  N   UNL     1      -3.382  -0.129   0.680  1.00  0.00    -0.371 N 
ATOM     20  C   UNL     1      -3.994  -0.740  -0.517  1.00  0.00     0.116 C 
ATOM     21  C   UNL     1      -3.467   1.338   0.572  1.00  0.00     0.116 C 
ATOM     22  C   UNL     1      -4.838   0.379  -1.115  1.00  0.00     0.023 C 
ATOM     23  C   UNL     1      -3.990   1.606  -0.836  1.00  0.00     0.023 C 
ENDBRANCH  15  19
ENDBRANCH   1  12
BRANCH  11  24
ATOM     24  O   UNL     1       0.557  -0.532  -2.354  1.00  0.00    -0.502 OA
ATOM     25  H   UNL     1       0.681  -0.414  -3.275  1.00  0.00     0.293 HD
ENDBRANCH  11  24
BRANCH   7  26
ATOM     26  O   UNL     1       5.524   1.041  -2.940  1.00  0.00    -0.507 OA
ATOM     27  H   UNL     1       6.378   1.325  -3.201  1.00  0.00     0.293 HD
ENDBRANCH   7  26
TORSDOF 4
