REMARK SMILES CCc1ccc(-c2oc3cccc(O)c3c(=O)c2O)cc1N1CCCCC1
REMARK SMILES IDX 7 1 8 2 9 3 10 4 11 5 12 6 13 7 15 8 16 9 17 10 18 11 6 12
REMARK SMILES IDX 3 13 4 14 21 15 5 16 20 17 2 18 1 19 22 20 23 21 27 22 24 23
REMARK SMILES IDX 26 24 25 25 19 26 14 28
REMARK H PARENT 19 27 14 29
ROOT
ATOM      1  C   UNL     1      -2.207  -0.144  -0.010  1.00  0.00     0.180 A 
ATOM      2  O   UNL     1      -3.037  -0.995   0.712  1.00  0.00    -0.452 OA
ATOM      3  C   UNL     1      -4.303  -0.575   1.028  1.00  0.00     0.142 A 
ATOM      4  C   UNL     1      -5.096  -1.455   1.766  1.00  0.00     0.048 A 
ATOM      5  C   UNL     1      -6.397  -1.090   2.120  1.00  0.00     0.008 A 
ATOM      6  C   UNL     1      -6.905   0.153   1.737  1.00  0.00     0.047 A 
ATOM      7  C   UNL     1      -6.111   1.029   1.001  1.00  0.00     0.130 A 
ATOM      8  C   UNL     1      -4.809   0.664   0.647  1.00  0.00     0.110 A 
ATOM      9  C   UNL     1      -3.942   1.554  -0.126  1.00  0.00     0.238 A 
ATOM     10  O   UNL     1      -4.319   2.661  -0.505  1.00  0.00    -0.285 OA
ATOM     11  C   UNL     1      -2.576   1.076  -0.442  1.00  0.00     0.208 A 
ENDROOT
BRANCH   1  12
ATOM     12  C   UNL     1      -0.876  -0.731  -0.276  1.00  0.00     0.023 A 
ATOM     13  C   UNL     1       1.655  -1.906  -0.733  1.00  0.00    -0.025 A 
ATOM     14  C   UNL     1       0.474  -2.632  -0.952  1.00  0.00     0.006 A 
ATOM     15  C   UNL     1       1.575  -0.571  -0.289  1.00  0.00     0.041 A 
ATOM     16  C   UNL     1      -0.775  -2.053  -0.723  1.00  0.00     0.012 A 
ATOM     17  C   UNL     1       0.306  -0.008  -0.055  1.00  0.00     0.038 A 
BRANCH  13  18
ATOM     18  C   UNL     1       2.984  -2.571  -1.016  1.00  0.00     0.034 C 
ATOM     19  C   UNL     1       3.479  -2.282  -2.425  1.00  0.00     0.009 C 
ENDBRANCH  13  18
BRANCH  15  20
ATOM     20  N   UNL     1       2.766   0.161  -0.076  1.00  0.00    -0.371 N 
ATOM     21  C   UNL     1       2.831   1.404  -0.861  1.00  0.00     0.116 C 
ATOM     22  C   UNL     1       3.041   0.353   1.357  1.00  0.00     0.116 C 
ATOM     23  C   UNL     1       4.240   1.986  -0.751  1.00  0.00     0.021 C 
ATOM     24  C   UNL     1       4.452   0.921   1.521  1.00  0.00     0.021 C 
ATOM     25  C   UNL     1       4.633   2.203   0.710  1.00  0.00     0.004 C 
ENDBRANCH  15  20
ENDBRANCH   1  12
BRANCH  11  26
ATOM     26  O   UNL     1      -1.771   1.921  -1.183  1.00  0.00    -0.502 OA
ATOM     27  H   UNL     1      -2.093   2.759  -1.452  1.00  0.00     0.293 HD
ENDBRANCH  11  26
BRANCH   7  28
ATOM     28  O   UNL     1      -6.670   2.229   0.658  1.00  0.00    -0.507 OA
ATOM     29  H   UNL     1      -7.548   2.429   0.919  1.00  0.00     0.293 HD
ENDBRANCH   7  28
TORSDOF 5
