REMARK SMILES O=c1c(O)c(-c2ccc(C(F)(F)F)c(CF)c2)oc2cccc(O)c12
REMARK SMILES IDX 1 1 2 2 3 3 5 4 18 5 19 6 20 7 21 8 22 9 23 10 25 11 4 12
REMARK SMILES IDX 6 14 7 15 17 16 8 17 14 18 9 19 15 20 16 21 10 22 11 23
REMARK SMILES IDX 12 24 13 25 24 26
REMARK H PARENT 4 13 24 27
ROOT
ATOM      1  O   UNL     1      -3.182  -2.667   0.953  1.00  0.00    -0.285 OA
ATOM      2  C   UNL     1      -2.584  -1.671   0.551  1.00  0.00     0.238 A 
ATOM      3  C   UNL     1      -1.106  -1.673   0.452  1.00  0.00     0.208 A 
ATOM      4  C   UNL     1      -0.490  -0.561   0.009  1.00  0.00     0.180 A 
ATOM      5  O   UNL     1      -1.159   0.602  -0.356  1.00  0.00    -0.452 OA
ATOM      6  C   UNL     1      -2.528   0.631  -0.280  1.00  0.00     0.142 A 
ATOM      7  C   UNL     1      -3.158   1.816  -0.664  1.00  0.00     0.048 A 
ATOM      8  C   UNL     1      -4.550   1.913  -0.611  1.00  0.00     0.008 A 
ATOM      9  C   UNL     1      -5.311   0.828  -0.173  1.00  0.00     0.047 A 
ATOM     10  C   UNL     1      -4.680  -0.353   0.210  1.00  0.00     0.130 A 
ATOM     11  C   UNL     1      -3.287  -0.450   0.156  1.00  0.00     0.110 A 
ENDROOT
BRANCH   3  12
ATOM     12  O   UNL     1      -0.450  -2.826   0.843  1.00  0.00    -0.502 OA
ATOM     13  H   UNL     1      -0.941  -3.566   1.143  1.00  0.00     0.293 HD
ENDBRANCH   3  12
BRANCH   4  14
ATOM     14  C   UNL     1       0.978  -0.444  -0.118  1.00  0.00     0.022 A 
ATOM     15  C   UNL     1       1.744  -1.429  -0.750  1.00  0.00     0.013 A 
ATOM     16  C   UNL     1       1.631   0.698   0.370  1.00  0.00     0.019 A 
ATOM     17  C   UNL     1       3.128  -1.287  -0.876  1.00  0.00     0.014 A 
ATOM     18  C   UNL     1       3.025   0.861   0.249  1.00  0.00    -0.004 A 
ATOM     19  C   UNL     1       3.786  -0.150  -0.378  1.00  0.00     0.061 A 
BRANCH  18  20
ATOM     20  C   UNL     1       3.673   2.107   0.807  1.00  0.00     0.250 C 
ATOM     21  F   UNL     1       2.774   3.018   1.279  1.00  0.00    -0.246 F 
ENDBRANCH  18  20
BRANCH  19  22
ATOM     22  C   UNL     1       5.286  -0.026  -0.531  1.00  0.00     0.416 C 
ATOM     23  F   UNL     1       5.638   1.024  -1.324  1.00  0.00    -0.166 F 
ATOM     24  F   UNL     1       5.915   0.181   0.659  1.00  0.00    -0.166 F 
ATOM     25  F   UNL     1       5.878  -1.123  -1.079  1.00  0.00    -0.166 F 
ENDBRANCH  19  22
ENDBRANCH   4  14
BRANCH  10  26
ATOM     26  O   UNL     1      -5.486  -1.376   0.629  1.00  0.00    -0.507 OA
ATOM     27  H   UNL     1      -6.415  -1.263   0.647  1.00  0.00     0.293 HD
ENDBRANCH  10  26
TORSDOF 5
