REMARK SMILES Cc1cc(-c2oc3cccc(O)c3c(=O)c2O)ccc1CF
REMARK SMILES IDX 5 1 6 2 7 3 8 4 9 5 10 6 11 7 13 8 14 9 15 10 16 11 4 12
REMARK SMILES IDX 2 13 3 14 20 15 19 16 18 17 1 18 21 19 22 20 17 21 12 23
REMARK H PARENT 17 22 12 24
ROOT
ATOM      1  C   UNL     1       0.488  -0.478  -0.381  1.00  0.00     0.180 A 
ATOM      2  O   UNL     1       1.145   0.705  -0.062  1.00  0.00    -0.452 OA
ATOM      3  C   UNL     1       2.514   0.704   0.014  1.00  0.00     0.142 A 
ATOM      4  C   UNL     1       3.133   1.917   0.323  1.00  0.00     0.048 A 
ATOM      5  C   UNL     1       4.524   1.984   0.417  1.00  0.00     0.008 A 
ATOM      6  C   UNL     1       5.297   0.841   0.204  1.00  0.00     0.047 A 
ATOM      7  C   UNL     1       4.678  -0.368  -0.103  1.00  0.00     0.130 A 
ATOM      8  C   UNL     1       3.285  -0.435  -0.199  1.00  0.00     0.110 A 
ATOM      9  C   UNL     1       2.594  -1.685  -0.520  1.00  0.00     0.238 A 
ATOM     10  O   UNL     1       3.203  -2.734  -0.714  1.00  0.00    -0.285 OA
ATOM     11  C   UNL     1       1.115  -1.648  -0.605  1.00  0.00     0.208 A 
ENDROOT
BRANCH   1  12
ATOM     12  C   UNL     1      -0.982  -0.325  -0.425  1.00  0.00     0.021 A 
ATOM     13  C   UNL     1      -3.039   0.551   0.586  1.00  0.00    -0.045 A 
ATOM     14  C   UNL     1      -1.644   0.367   0.600  1.00  0.00     0.016 A 
ATOM     15  C   UNL     1      -3.789   0.059  -0.501  1.00  0.00    -0.014 A 
ATOM     16  C   UNL     1      -3.126  -0.634  -1.526  1.00  0.00     0.007 A 
ATOM     17  C   UNL     1      -1.741  -0.818  -1.491  1.00  0.00     0.012 A 
ATOM     18  C   UNL     1      -3.686   1.306   1.715  1.00  0.00     0.045 C 
BRANCH  15  19
ATOM     19  C   UNL     1      -5.287   0.216  -0.573  1.00  0.00     0.250 C 
ATOM     20  F   UNL     1      -5.715   1.474  -0.268  1.00  0.00    -0.246 F 
ENDBRANCH  15  19
ENDBRANCH   1  12
BRANCH  11  21
ATOM     21  O   UNL     1       0.472  -2.837  -0.895  1.00  0.00    -0.502 OA
ATOM     22  H   UNL     1       0.972  -3.616  -1.041  1.00  0.00     0.293 HD
ENDBRANCH  11  21
BRANCH   7  23
ATOM     23  O   UNL     1       5.494  -1.448  -0.299  1.00  0.00    -0.507 OA
ATOM     24  H   UNL     1       6.423  -1.353  -0.224  1.00  0.00     0.293 HD
ENDBRANCH   7  23
TORSDOF 4
