REMARK SMILES CCc1ccc(-c2oc3cccc(O)c3c(=O)c2O)cc1C(F)F
REMARK SMILES IDX 7 1 8 2 9 3 10 4 11 5 12 6 13 7 15 8 16 9 17 10 18 11 6 12
REMARK SMILES IDX 3 13 4 14 21 15 5 16 20 17 2 18 1 19 22 20 23 21 24 22 19 23
REMARK SMILES IDX 14 25
REMARK H PARENT 19 24 14 26
ROOT
ATOM      1  C   UNL     1       0.969   0.425  -0.282  1.00  0.00     0.180 A 
ATOM      2  O   UNL     1       1.662  -0.729  -0.629  1.00  0.00    -0.452 OA
ATOM      3  C   UNL     1       3.034  -0.706  -0.618  1.00  0.00     0.142 A 
ATOM      4  C   UNL     1       3.689  -1.891  -0.956  1.00  0.00     0.048 A 
ATOM      5  C   UNL     1       5.085  -1.935  -0.967  1.00  0.00     0.008 A 
ATOM      6  C   UNL     1       5.825  -0.796  -0.641  1.00  0.00     0.047 A 
ATOM      7  C   UNL     1       5.168   0.385  -0.304  1.00  0.00     0.130 A 
ATOM      8  C   UNL     1       3.771   0.428  -0.292  1.00  0.00     0.110 A 
ATOM      9  C   UNL     1       3.042   1.649   0.056  1.00  0.00     0.238 A 
ATOM     10  O   UNL     1       3.620   2.693   0.347  1.00  0.00    -0.285 OA
ATOM     11  C   UNL     1       1.562   1.588   0.046  1.00  0.00     0.208 A 
ENDROOT
BRANCH   1  12
ATOM     12  C   UNL     1      -0.497   0.254  -0.334  1.00  0.00     0.022 A 
ATOM     13  C   UNL     1      -3.304  -0.125  -0.449  1.00  0.00    -0.039 A 
ATOM     14  C   UNL     1      -2.472  -0.540  -1.503  1.00  0.00     0.005 A 
ATOM     15  C   UNL     1      -2.721   0.470   0.689  1.00  0.00     0.022 A 
ATOM     16  C   UNL     1      -1.089  -0.355  -1.445  1.00  0.00     0.012 A 
ATOM     17  C   UNL     1      -1.323   0.653   0.726  1.00  0.00     0.022 A 
BRANCH  13  18
ATOM     18  C   UNL     1      -4.793  -0.364  -0.578  1.00  0.00     0.032 C 
ATOM     19  C   UNL     1      -5.181  -1.780  -0.179  1.00  0.00     0.009 C 
ENDBRANCH  13  18
BRANCH  15  20
ATOM     20  C   UNL     1      -3.547   0.957   1.859  1.00  0.00     0.373 C 
ATOM     21  F   UNL     1      -4.433   0.028   2.314  1.00  0.00    -0.205 F 
ATOM     22  F   UNL     1      -2.800   1.303   2.947  1.00  0.00    -0.205 F 
ENDBRANCH  15  20
ENDBRANCH   1  12
BRANCH  11  23
ATOM     23  O   UNL     1       0.880   2.748   0.364  1.00  0.00    -0.502 OA
ATOM     24  H   UNL     1       1.356   3.525   0.584  1.00  0.00     0.293 HD
ENDBRANCH  11  23
BRANCH   7  25
ATOM     25  O   UNL     1       5.953   1.462   0.004  1.00  0.00    -0.507 OA
ATOM     26  H   UNL     1       6.886   1.383  -0.018  1.00  0.00     0.293 HD
ENDBRANCH   7  25
TORSDOF 5
