REMARK SMILES Cc1ccc(-c2oc3cccc(O)c3c(=O)c2O)cc1C
REMARK SMILES IDX 6 1 7 2 8 3 9 4 10 5 11 6 12 7 14 8 15 9 16 10 17 11 5 12
REMARK SMILES IDX 2 13 3 14 20 15 4 16 19 17 1 18 21 19 18 20 13 22
REMARK H PARENT 18 21 13 23
ROOT
ATOM      1  C   UNL     1       0.565  -0.466  -0.042  1.00  0.00     0.180 A 
ATOM      2  O   UNL     1       1.007   0.808  -0.378  1.00  0.00    -0.452 OA
ATOM      3  C   UNL     1       2.355   1.062  -0.389  1.00  0.00     0.142 A 
ATOM      4  C   UNL     1       2.755   2.350  -0.747  1.00  0.00     0.048 A 
ATOM      5  C   UNL     1       4.113   2.675  -0.776  1.00  0.00     0.008 A 
ATOM      6  C   UNL     1       5.070   1.713  -0.447  1.00  0.00     0.047 A 
ATOM      7  C   UNL     1       4.668   0.428  -0.090  1.00  0.00     0.130 A 
ATOM      8  C   UNL     1       3.309   0.103  -0.062  1.00  0.00     0.110 A 
ATOM      9  C   UNL     1       2.844  -1.235   0.307  1.00  0.00     0.238 A 
ATOM     10  O   UNL     1       3.625  -2.133   0.615  1.00  0.00    -0.285 OA
ATOM     11  C   UNL     1       1.383  -1.479   0.298  1.00  0.00     0.208 A 
ENDROOT
BRANCH   1  12
ATOM     12  C   UNL     1      -0.908  -0.589  -0.073  1.00  0.00     0.021 A 
ATOM     13  C   UNL     1      -3.734  -0.749  -0.156  1.00  0.00    -0.048 A 
ATOM     14  C   UNL     1      -2.939  -1.736  -0.754  1.00  0.00     0.004 A 
ATOM     15  C   UNL     1      -3.110   0.338   0.486  1.00  0.00    -0.047 A 
ATOM     16  C   UNL     1      -1.545  -1.655  -0.716  1.00  0.00     0.012 A 
ATOM     17  C   UNL     1      -1.706   0.404   0.517  1.00  0.00     0.015 A 
ATOM     18  C   UNL     1      -5.232  -0.871  -0.217  1.00  0.00     0.044 C 
ATOM     19  C   UNL     1      -3.913   1.427   1.143  1.00  0.00     0.044 C 
ENDBRANCH   1  12
BRANCH  11  20
ATOM     20  O   UNL     1       0.955  -2.742   0.661  1.00  0.00    -0.502 OA
ATOM     21  H   UNL     1       1.581  -3.402   0.887  1.00  0.00     0.293 HD
ENDBRANCH  11  20
BRANCH   7  22
ATOM     22  O   UNL     1       5.657  -0.465   0.220  1.00  0.00    -0.507 OA
ATOM     23  H   UNL     1       6.555  -0.200   0.186  1.00  0.00     0.293 HD
ENDBRANCH   7  22
TORSDOF 3
