REMARK SMILES CCc1cc(-c2oc3cccc(O)c3c(=O)c2O)ccc1C(F)F
REMARK SMILES IDX 6 1 7 2 8 3 9 4 10 5 11 6 12 7 14 8 15 9 16 10 17 11 5 12
REMARK SMILES IDX 3 13 4 14 21 15 20 16 19 17 2 18 1 19 22 20 23 21 24 22
REMARK SMILES IDX 18 23 13 25
REMARK H PARENT 18 24 13 26
ROOT
ATOM      1  C   UNL     1       0.886   0.045   0.486  1.00  0.00     0.180 A 
ATOM      2  O   UNL     1       1.680   0.743  -0.416  1.00  0.00    -0.452 OA
ATOM      3  C   UNL     1       3.018   0.451  -0.485  1.00  0.00     0.142 A 
ATOM      4  C   UNL     1       3.775   1.164  -1.416  1.00  0.00     0.048 A 
ATOM      5  C   UNL     1       5.145   0.917  -1.536  1.00  0.00     0.008 A 
ATOM      6  C   UNL     1       5.756  -0.042  -0.727  1.00  0.00     0.047 A 
ATOM      7  C   UNL     1       4.999  -0.752   0.201  1.00  0.00     0.130 A 
ATOM      8  C   UNL     1       3.629  -0.505   0.321  1.00  0.00     0.110 A 
ATOM      9  C   UNL     1       2.796  -1.229   1.282  1.00  0.00     0.238 A 
ATOM     10  O   UNL     1       3.262  -2.083   2.035  1.00  0.00    -0.285 OA
ATOM     11  C   UNL     1       1.353  -0.898   1.325  1.00  0.00     0.208 A 
ENDROOT
BRANCH   1  12
ATOM     12  C   UNL     1      -0.531   0.465   0.449  1.00  0.00     0.022 A 
ATOM     13  C   UNL     1      -2.926  -0.068   0.323  1.00  0.00    -0.039 A 
ATOM     14  C   UNL     1      -1.575  -0.468   0.382  1.00  0.00     0.016 A 
ATOM     15  C   UNL     1      -3.238   1.308   0.314  1.00  0.00     0.021 A 
ATOM     16  C   UNL     1      -2.188   2.240   0.375  1.00  0.00     0.010 A 
ATOM     17  C   UNL     1      -0.855   1.825   0.437  1.00  0.00     0.012 A 
BRANCH  13  18
ATOM     18  C   UNL     1      -3.985  -1.146   0.246  1.00  0.00     0.032 C 
ATOM     19  C   UNL     1      -4.184  -1.649  -1.177  1.00  0.00     0.009 C 
ENDBRANCH  13  18
BRANCH  15  20
ATOM     20  C   UNL     1      -4.662   1.813   0.271  1.00  0.00     0.373 C 
ATOM     21  F   UNL     1      -5.391   1.277  -0.748  1.00  0.00    -0.205 F 
ATOM     22  F   UNL     1      -4.756   3.165   0.108  1.00  0.00    -0.205 F 
ENDBRANCH  15  20
ENDBRANCH   1  12
BRANCH  11  23
ATOM     23  O   UNL     1       0.578  -1.579   2.246  1.00  0.00    -0.502 OA
ATOM     24  H   UNL     1       0.969  -2.225   2.800  1.00  0.00     0.293 HD
ENDBRANCH  11  23
BRANCH   7  25
ATOM     25  O   UNL     1       5.662  -1.676   0.962  1.00  0.00    -0.507 OA
ATOM     26  H   UNL     1       6.582  -1.806   0.845  1.00  0.00     0.293 HD
ENDBRANCH   7  25
TORSDOF 5
