REMARK SMILES O=c1c(O)c(-c2ccc(C(F)F)c(C(F)F)c2)oc2cccc(O)c12
REMARK SMILES IDX 1 1 2 2 3 3 5 4 18 5 19 6 20 7 21 8 22 9 23 10 25 11 4 12
REMARK SMILES IDX 6 14 7 15 17 16 8 17 13 18 9 19 14 20 15 21 16 22 10 23
REMARK SMILES IDX 11 24 12 25 24 26
REMARK H PARENT 4 13 24 27
ROOT
ATOM      1  O   UNL     1       2.998   0.173   2.904  1.00  0.00    -0.285 OA
ATOM      2  C   UNL     1       2.469   0.062   1.800  1.00  0.00     0.238 A 
ATOM      3  C   UNL     1       1.027   0.353   1.625  1.00  0.00     0.208 A 
ATOM      4  C   UNL     1       0.487   0.217   0.400  1.00  0.00     0.180 A 
ATOM      5  O   UNL     1       1.200  -0.194  -0.720  1.00  0.00    -0.452 OA
ATOM      6  C   UNL     1       2.539  -0.464  -0.591  1.00  0.00     0.142 A 
ATOM      7  C   UNL     1       3.218  -0.862  -1.744  1.00  0.00     0.048 A 
ATOM      8  C   UNL     1       4.582  -1.153  -1.682  1.00  0.00     0.008 A 
ATOM      9  C   UNL     1       5.267  -1.046  -0.469  1.00  0.00     0.047 A 
ATOM     10  C   UNL     1       4.587  -0.649   0.679  1.00  0.00     0.130 A 
ATOM     11  C   UNL     1       3.221  -0.357   0.617  1.00  0.00     0.110 A 
ENDROOT
BRANCH   3  12
ATOM     12  O   UNL     1       0.320   0.734   2.752  1.00  0.00    -0.502 OA
ATOM     13  H   UNL     1       0.758   0.809   3.576  1.00  0.00     0.293 HD
ENDBRANCH   3  12
BRANCH   4  14
ATOM     14  C   UNL     1      -0.941   0.468   0.112  1.00  0.00     0.022 A 
ATOM     15  C   UNL     1      -1.585   1.633   0.541  1.00  0.00     0.012 A 
ATOM     16  C   UNL     1      -1.673  -0.458  -0.647  1.00  0.00     0.022 A 
ATOM     17  C   UNL     1      -2.930   1.861   0.239  1.00  0.00     0.011 A 
ATOM     18  C   UNL     1      -3.027  -0.242  -0.969  1.00  0.00     0.027 A 
ATOM     19  C   UNL     1      -3.669   0.929  -0.507  1.00  0.00     0.027 A 
BRANCH  18  20
ATOM     20  C   UNL     1      -3.773  -1.278  -1.780  1.00  0.00     0.373 C 
ATOM     21  F   UNL     1      -4.507  -0.714  -2.781  1.00  0.00    -0.205 F 
ATOM     22  F   UNL     1      -2.948  -2.170  -2.399  1.00  0.00    -0.205 F 
ENDBRANCH  18  20
BRANCH  19  23
ATOM     23  C   UNL     1      -5.122   1.206  -0.822  1.00  0.00     0.373 C 
ATOM     24  F   UNL     1      -5.658   2.197  -0.053  1.00  0.00    -0.205 F 
ATOM     25  F   UNL     1      -5.911   0.116  -0.607  1.00  0.00    -0.205 F 
ENDBRANCH  19  23
ENDBRANCH   4  14
BRANCH  10  26
ATOM     26  O   UNL     1       5.317  -0.566   1.832  1.00  0.00    -0.507 OA
ATOM     27  H   UNL     1       6.231  -0.772   1.823  1.00  0.00     0.293 HD
ENDBRANCH  10  26
TORSDOF 5
