REMARK SMILES C=Cc1cc(-c2oc3cccc(O)c3c(=O)c2O)ccc1C(F)F
REMARK SMILES IDX 6 1 7 2 8 3 9 4 10 5 11 6 12 7 14 8 15 9 16 10 17 11 5 12
REMARK SMILES IDX 3 13 4 14 21 15 20 16 19 17 2 18 1 19 22 20 23 21 24 22
REMARK SMILES IDX 18 23 13 25
REMARK H PARENT 18 24 13 26
ROOT
ATOM      1  C   UNL     1      -0.645  -0.130  -0.261  1.00  0.00     0.180 A 
ATOM      2  O   UNL     1      -1.471   0.980  -0.132  1.00  0.00    -0.452 OA
ATOM      3  C   UNL     1      -2.813   0.787   0.078  1.00  0.00     0.142 A 
ATOM      4  C   UNL     1      -3.603   1.929   0.218  1.00  0.00     0.048 A 
ATOM      5  C   UNL     1      -4.978   1.802   0.432  1.00  0.00     0.008 A 
ATOM      6  C   UNL     1      -5.561   0.536   0.505  1.00  0.00     0.047 A 
ATOM      7  C   UNL     1      -4.770  -0.602   0.365  1.00  0.00     0.130 A 
ATOM      8  C   UNL     1      -3.395  -0.475   0.152  1.00  0.00     0.110 A 
ATOM      9  C   UNL     1      -2.528  -1.644  -0.001  1.00  0.00     0.238 A 
ATOM     10  O   UNL     1      -2.967  -2.792   0.044  1.00  0.00    -0.285 OA
ATOM     11  C   UNL     1      -1.083  -1.402  -0.215  1.00  0.00     0.208 A 
ENDROOT
BRANCH   1  12
ATOM     12  C   UNL     1       0.771   0.229  -0.481  1.00  0.00     0.022 A 
ATOM     13  C   UNL     1       3.149   0.000   0.067  1.00  0.00    -0.017 A 
ATOM     14  C   UNL     1       1.803  -0.357   0.266  1.00  0.00     0.020 A 
ATOM     15  C   UNL     1       3.472   0.980  -0.890  1.00  0.00     0.025 A 
ATOM     16  C   UNL     1       2.436   1.577  -1.628  1.00  0.00     0.011 A 
ATOM     17  C   UNL     1       1.104   1.208  -1.424  1.00  0.00     0.012 A 
BRANCH  13  18
ATOM     18  C   UNL     1       4.187  -0.640   0.885  1.00  0.00     0.001 C 
ATOM     19  C   UNL     1       4.369  -1.966   0.914  1.00  0.00     0.009 C 
ENDBRANCH  13  18
BRANCH  15  20
ATOM     20  C   UNL     1       4.902   1.387  -1.149  1.00  0.00     0.373 C 
ATOM     21  F   UNL     1       5.492   1.960  -0.062  1.00  0.00    -0.205 F 
ATOM     22  F   UNL     1       5.030   2.304  -2.153  1.00  0.00    -0.205 F 
ENDBRANCH  15  20
ENDBRANCH   1  12
BRANCH  11  23
ATOM     23  O   UNL     1      -0.274  -2.512  -0.372  1.00  0.00    -0.502 OA
ATOM     24  H   UNL     1      -0.644  -3.372  -0.328  1.00  0.00     0.293 HD
ENDBRANCH  11  23
BRANCH   7  25
ATOM     25  O   UNL     1      -5.406  -1.810   0.447  1.00  0.00    -0.507 OA
ATOM     26  H   UNL     1      -6.332  -1.844   0.592  1.00  0.00     0.293 HD
ENDBRANCH   7  25
TORSDOF 5
