REMARK SMILES CCCc1cc(-c2oc3cccc(O)c3c(=O)c2O)ccc1C
REMARK SMILES IDX 4 1 5 2 6 3 20 4 21 5 22 6 23 7 3 8 2 9 1 10 7 11 8 12 18 13
REMARK SMILES IDX 9 14 16 15 10 16 15 17 17 18 11 19 13 20 12 21 19 22 14 24
REMARK H PARENT 19 23 14 25
ROOT
ATOM      1  C   UNL     1       2.457  -0.365  -0.269  1.00  0.00    -0.044 A 
ATOM      2  C   UNL     1       1.151   0.151  -0.144  1.00  0.00     0.016 A 
ATOM      3  C   UNL     1       0.029  -0.687  -0.079  1.00  0.00     0.022 A 
ATOM      4  C   UNL     1       0.230  -2.069  -0.159  1.00  0.00     0.012 A 
ATOM      5  C   UNL     1       1.518  -2.598  -0.278  1.00  0.00     0.004 A 
ATOM      6  C   UNL     1       2.642  -1.760  -0.325  1.00  0.00    -0.048 A 
ATOM      7  C   UNL     1       4.006  -2.379  -0.459  1.00  0.00     0.044 C 
ENDROOT
BRANCH   1   8
ATOM      8  C   UNL     1       3.612   0.612  -0.308  1.00  0.00     0.035 C 
BRANCH   8   9
ATOM      9  C   UNL     1       4.088   0.982   1.098  1.00  0.00     0.001 C 
ATOM     10  C   UNL     1       5.256   1.954   1.050  1.00  0.00     0.004 C 
ENDBRANCH   8   9
ENDBRANCH   1   8
BRANCH   3  11
ATOM     11  C   UNL     1      -1.342  -0.147   0.025  1.00  0.00     0.180 A 
ATOM     12  O   UNL     1      -2.225  -0.737  -0.872  1.00  0.00    -0.452 OA
ATOM     13  C   UNL     1      -1.697   0.801   0.913  1.00  0.00     0.208 A 
ATOM     14  C   UNL     1      -3.534  -0.327  -0.881  1.00  0.00     0.142 A 
ATOM     15  C   UNL     1      -3.105   1.258   0.936  1.00  0.00     0.238 A 
ATOM     16  C   UNL     1      -4.382  -0.936  -1.808  1.00  0.00     0.048 A 
ATOM     17  C   UNL     1      -4.030   0.646  -0.020  1.00  0.00     0.110 A 
ATOM     18  O   UNL     1      -3.470   2.119   1.734  1.00  0.00    -0.285 OA
ATOM     19  C   UNL     1      -5.727  -0.566  -1.869  1.00  0.00     0.008 A 
ATOM     20  C   UNL     1      -5.377   1.016  -0.080  1.00  0.00     0.130 A 
ATOM     21  C   UNL     1      -6.225   0.411  -1.004  1.00  0.00     0.047 A 
BRANCH  13  22
ATOM     22  O   UNL     1      -0.835   1.376   1.829  1.00  0.00    -0.502 OA
ATOM     23  H   UNL     1      -1.149   2.032   2.420  1.00  0.00     0.293 HD
ENDBRANCH  13  22
BRANCH  20  24
ATOM     24  O   UNL     1      -5.929   1.964   0.737  1.00  0.00    -0.507 OA
ATOM     25  H   UNL     1      -6.838   2.178   0.658  1.00  0.00     0.293 HD
ENDBRANCH  20  24
ENDBRANCH   3  11
TORSDOF 5
