REMARK SMILES O=c1c(O)c(-c2ccc(CF)c(C(F)F)c2)oc2cccc(O)c12
REMARK SMILES IDX 1 1 2 2 3 3 5 4 17 5 18 6 19 7 20 8 21 9 22 10 24 11 4 12
REMARK SMILES IDX 6 14 7 15 16 16 8 17 12 18 9 19 13 20 14 21 15 22 10 23
REMARK SMILES IDX 11 24 23 25
REMARK H PARENT 4 13 23 26
ROOT
ATOM      1  O   UNL     1       3.292   2.633  -0.671  1.00  0.00    -0.285 OA
ATOM      2  C   UNL     1       2.648   1.603  -0.484  1.00  0.00     0.238 A 
ATOM      3  C   UNL     1       1.168   1.621  -0.539  1.00  0.00     0.208 A 
ATOM      4  C   UNL     1       0.503   0.471  -0.327  1.00  0.00     0.180 A 
ATOM      5  O   UNL     1       1.121  -0.742  -0.047  1.00  0.00    -0.452 OA
ATOM      6  C   UNL     1       2.491  -0.792   0.004  1.00  0.00     0.142 A 
ATOM      7  C   UNL     1       3.070  -2.032   0.278  1.00  0.00     0.048 A 
ATOM      8  C   UNL     1       4.460  -2.152   0.345  1.00  0.00     0.008 A 
ATOM      9  C   UNL     1       5.270  -1.033   0.139  1.00  0.00     0.047 A 
ATOM     10  C   UNL     1       4.689   0.203  -0.134  1.00  0.00     0.130 A 
ATOM     11  C   UNL     1       3.299   0.322  -0.201  1.00  0.00     0.110 A 
ENDROOT
BRANCH   3  12
ATOM     12  O   UNL     1       0.563   2.839  -0.791  1.00  0.00    -0.502 OA
ATOM     13  H   UNL     1       1.088   3.603  -0.930  1.00  0.00     0.293 HD
ENDBRANCH   3  12
BRANCH   4  14
ATOM     14  C   UNL     1      -0.973   0.373  -0.345  1.00  0.00     0.022 A 
ATOM     15  C   UNL     1      -1.735   0.922  -1.381  1.00  0.00     0.012 A 
ATOM     16  C   UNL     1      -1.638  -0.326   0.674  1.00  0.00     0.022 A 
ATOM     17  C   UNL     1      -3.127   0.797  -1.389  1.00  0.00     0.007 A 
ATOM     18  C   UNL     1      -3.039  -0.467   0.680  1.00  0.00     0.024 A 
ATOM     19  C   UNL     1      -3.794   0.117  -0.360  1.00  0.00    -0.008 A 
BRANCH  18  20
ATOM     20  C   UNL     1      -3.706  -1.232   1.802  1.00  0.00     0.373 C 
ATOM     21  F   UNL     1      -4.544  -2.203   1.342  1.00  0.00    -0.205 F 
ATOM     22  F   UNL     1      -2.817  -1.880   2.611  1.00  0.00    -0.205 F 
ENDBRANCH  18  20
BRANCH  19  23
ATOM     23  C   UNL     1      -5.296  -0.006  -0.403  1.00  0.00     0.250 C 
ATOM     24  F   UNL     1      -5.872   0.236   0.808  1.00  0.00    -0.246 F 
ENDBRANCH  19  23
ENDBRANCH   4  14
BRANCH  10  25
ATOM     25  O   UNL     1       5.541   1.256  -0.325  1.00  0.00    -0.507 OA
ATOM     26  H   UNL     1       6.467   1.126  -0.269  1.00  0.00     0.293 HD
ENDBRANCH  10  25
TORSDOF 5
