REMARK SMILES CCCc1cc(-c2oc3cccc(O)c3c(=O)c2O)ccc1CC
REMARK SMILES IDX 4 1 5 2 6 3 20 4 21 5 22 6 3 7 2 8 1 9 23 10 24 11 7 12 8 13
REMARK SMILES IDX 18 14 9 15 16 16 10 17 15 18 17 19 11 20 13 21 12 22 19 23
REMARK SMILES IDX 14 25
REMARK H PARENT 19 24 14 26
ROOT
ATOM      1  C   UNL     1      -2.138  -0.220   0.205  1.00  0.00    -0.044 A 
ATOM      2  C   UNL     1      -0.843   0.325   0.082  1.00  0.00     0.016 A 
ATOM      3  C   UNL     1       0.277  -0.477  -0.176  1.00  0.00     0.022 A 
ATOM      4  C   UNL     1       0.089  -1.857  -0.297  1.00  0.00     0.012 A 
ATOM      5  C   UNL     1      -1.187  -2.415  -0.184  1.00  0.00     0.005 A 
ATOM      6  C   UNL     1      -2.313  -1.610   0.057  1.00  0.00    -0.045 A 
ENDROOT
BRANCH   1   7
ATOM      7  C   UNL     1      -3.285   0.733   0.460  1.00  0.00     0.035 C 
BRANCH   7   8
ATOM      8  C   UNL     1      -3.870   1.277  -0.845  1.00  0.00     0.001 C 
ATOM      9  C   UNL     1      -5.031   2.222  -0.581  1.00  0.00     0.004 C 
ENDBRANCH   7   8
ENDBRANCH   1   7
BRANCH   6  10
ATOM     10  C   UNL     1      -3.659  -2.289   0.175  1.00  0.00     0.032 C 
ATOM     11  C   UNL     1      -3.950  -2.730   1.602  1.00  0.00     0.009 C 
ENDBRANCH   6  10
BRANCH   3  12
ATOM     12  C   UNL     1       1.637   0.093  -0.279  1.00  0.00     0.180 A 
ATOM     13  O   UNL     1       2.576  -0.614   0.464  1.00  0.00    -0.452 OA
ATOM     14  C   UNL     1       1.932   1.169  -1.031  1.00  0.00     0.208 A 
ATOM     15  C   UNL     1       3.881  -0.192   0.459  1.00  0.00     0.142 A 
ATOM     16  C   UNL     1       3.334   1.644  -1.067  1.00  0.00     0.238 A 
ATOM     17  C   UNL     1       4.786  -0.922   1.230  1.00  0.00     0.048 A 
ATOM     18  C   UNL     1       4.319   0.908  -0.272  1.00  0.00     0.110 A 
ATOM     19  O   UNL     1       3.645   2.622  -1.744  1.00  0.00    -0.285 OA
ATOM     20  C   UNL     1       6.131  -0.546   1.268  1.00  0.00     0.008 A 
ATOM     21  C   UNL     1       5.664   1.284  -0.235  1.00  0.00     0.130 A 
ATOM     22  C   UNL     1       6.570   0.558   0.534  1.00  0.00     0.047 A 
BRANCH  14  23
ATOM     23  O   UNL     1       1.013   1.864  -1.796  1.00  0.00    -0.502 OA
ATOM     24  H   UNL     1       1.287   2.607  -2.297  1.00  0.00     0.293 HD
ENDBRANCH  14  23
BRANCH  21  25
ATOM     25  O   UNL     1       6.161   2.353  -0.929  1.00  0.00    -0.507 OA
ATOM     26  H   UNL     1       7.072   2.566  -0.873  1.00  0.00     0.293 HD
ENDBRANCH  21  25
ENDBRANCH   3  12
TORSDOF 6
