REMARK SMILES Cc1ccc(-c2oc3cccc(O)c3c(=O)c2O)cc1N1CCCCC1
REMARK SMILES IDX 6 1 7 2 8 3 9 4 10 5 11 6 12 7 14 8 15 9 16 10 17 11 5 12
REMARK SMILES IDX 2 13 3 14 20 15 4 16 19 17 1 18 21 19 22 20 26 21 23 22
REMARK SMILES IDX 25 23 24 24 18 25 13 27
REMARK H PARENT 18 26 13 28
ROOT
ATOM      1  C   UNL     1       1.964   0.041  -0.398  1.00  0.00     0.180 A 
ATOM      2  O   UNL     1       2.978  -0.732   0.157  1.00  0.00    -0.452 OA
ATOM      3  C   UNL     1       4.192  -0.149   0.415  1.00  0.00     0.142 A 
ATOM      4  C   UNL     1       5.175  -0.959   0.986  1.00  0.00     0.048 A 
ATOM      5  C   UNL     1       6.434  -0.428   1.274  1.00  0.00     0.008 A 
ATOM      6  C   UNL     1       6.710   0.911   0.990  1.00  0.00     0.047 A 
ATOM      7  C   UNL     1       5.728   1.717   0.420  1.00  0.00     0.130 A 
ATOM      8  C   UNL     1       4.467   1.185   0.134  1.00  0.00     0.110 A 
ATOM      9  C   UNL     1       3.407   1.997  -0.465  1.00  0.00     0.238 A 
ATOM     10  O   UNL     1       3.575   3.181  -0.750  1.00  0.00    -0.285 OA
ATOM     11  C   UNL     1       2.104   1.340  -0.722  1.00  0.00     0.208 A 
ENDROOT
BRANCH   1  12
ATOM     12  C   UNL     1       0.717  -0.721  -0.621  1.00  0.00     0.023 A 
ATOM     13  C   UNL     1      -1.639  -2.229  -1.013  1.00  0.00    -0.028 A 
ATOM     14  C   UNL     1      -0.392  -2.736  -1.402  1.00  0.00     0.006 A 
ATOM     15  C   UNL     1      -1.717  -0.956  -0.415  1.00  0.00     0.040 A 
ATOM     16  C   UNL     1       0.772  -1.992  -1.205  1.00  0.00     0.012 A 
ATOM     17  C   UNL     1      -0.532  -0.222  -0.223  1.00  0.00     0.038 A 
ATOM     18  C   UNL     1      -2.881  -3.048  -1.239  1.00  0.00     0.046 C 
BRANCH  15  19
ATOM     19  N   UNL     1      -2.982  -0.455  -0.029  1.00  0.00    -0.371 N 
ATOM     20  C   UNL     1      -3.362   0.744  -0.795  1.00  0.00     0.116 C 
ATOM     21  C   UNL     1      -3.097  -0.285   1.428  1.00  0.00     0.116 C 
ATOM     22  C   UNL     1      -4.821   1.087  -0.492  1.00  0.00     0.021 C 
ATOM     23  C   UNL     1      -4.550   0.035   1.780  1.00  0.00     0.021 C 
ATOM     24  C   UNL     1      -5.048   1.258   1.010  1.00  0.00     0.004 C 
ENDBRANCH  15  19
ENDBRANCH   1  12
BRANCH  11  25
ATOM     25  O   UNL     1       1.114   2.114  -1.300  1.00  0.00    -0.502 OA
ATOM     26  H   UNL     1       1.280   3.014  -1.499  1.00  0.00     0.293 HD
ENDBRANCH  11  25
BRANCH   7  27
ATOM     27  O   UNL     1       6.066   3.018   0.168  1.00  0.00    -0.507 OA
ATOM     28  H   UNL     1       6.924   3.328   0.378  1.00  0.00     0.293 HD
ENDBRANCH   7  27
TORSDOF 4
