REMARK SMILES Cc1cc(-c2oc3cccc(O)c3c(=O)c2O)ccc1C(F)F
REMARK SMILES IDX 5 1 6 2 7 3 8 4 9 5 10 6 11 7 13 8 14 9 15 10 16 11 4 12
REMARK SMILES IDX 2 13 3 14 20 15 19 16 18 17 1 18 21 19 22 20 23 21 17 22
REMARK SMILES IDX 12 24
REMARK H PARENT 17 23 12 25
ROOT
ATOM      1  C   UNL     1       0.507   0.009  -0.320  1.00  0.00     0.180 A 
ATOM      2  O   UNL     1       1.278  -0.710   0.586  1.00  0.00    -0.452 OA
ATOM      3  C   UNL     1       2.644  -0.621   0.511  1.00  0.00     0.142 A 
ATOM      4  C   UNL     1       3.379  -1.346   1.450  1.00  0.00     0.048 A 
ATOM      5  C   UNL     1       4.775  -1.300   1.429  1.00  0.00     0.008 A 
ATOM      6  C   UNL     1       5.435  -0.530   0.470  1.00  0.00     0.047 A 
ATOM      7  C   UNL     1       4.700   0.193  -0.466  1.00  0.00     0.130 A 
ATOM      8  C   UNL     1       3.303   0.147  -0.444  1.00  0.00     0.110 A 
ATOM      9  C   UNL     1       2.493   0.892  -1.409  1.00  0.00     0.238 A 
ATOM     10  O   UNL     1       3.000   1.586  -2.288  1.00  0.00    -0.285 OA
ATOM     11  C   UNL     1       1.020   0.783  -1.295  1.00  0.00     0.208 A 
ENDROOT
BRANCH   1  12
ATOM     12  C   UNL     1      -0.945  -0.184  -0.120  1.00  0.00     0.022 A 
ATOM     13  C   UNL     1      -3.212   0.715   0.141  1.00  0.00    -0.042 A 
ATOM     14  C   UNL     1      -1.833   0.900  -0.069  1.00  0.00     0.016 A 
ATOM     15  C   UNL     1      -3.714  -0.589   0.333  1.00  0.00     0.021 A 
ATOM     16  C   UNL     1      -2.822  -1.673   0.286  1.00  0.00     0.010 A 
ATOM     17  C   UNL     1      -1.457  -1.472   0.067  1.00  0.00     0.012 A 
ATOM     18  C   UNL     1      -4.108   1.923   0.195  1.00  0.00     0.045 C 
BRANCH  15  19
ATOM     19  C   UNL     1      -5.186  -0.851   0.557  1.00  0.00     0.373 C 
ATOM     20  F   UNL     1      -5.458  -2.135   0.931  1.00  0.00    -0.205 F 
ATOM     21  F   UNL     1      -5.727  -0.068   1.531  1.00  0.00    -0.205 F 
ENDBRANCH  15  19
ENDBRANCH   1  12
BRANCH  11  22
ATOM     22  O   UNL     1       0.264   1.479  -2.219  1.00  0.00    -0.502 OA
ATOM     23  H   UNL     1       0.687   2.001  -2.873  1.00  0.00     0.293 HD
ENDBRANCH  11  22
BRANCH   7  24
ATOM     24  O   UNL     1       5.410   0.925  -1.377  1.00  0.00    -0.507 OA
ATOM     25  H   UNL     1       6.347   0.924  -1.352  1.00  0.00     0.293 HD
ENDBRANCH   7  24
TORSDOF 4
