REMARK SMILES C[NH+](C)CCc1ccc(-c2oc3cccc(O)c3c(=O)c2O)cc1C(F)(F)F
REMARK SMILES IDX 6 1 7 2 8 3 9 4 23 5 24 6 5 7 4 8 2 9 1 10 3 11 25 13 26 14
REMARK SMILES IDX 27 15 28 16 10 17 11 18 21 19 12 20 19 21 13 22 18 23 20 24
REMARK SMILES IDX 14 25 16 26 15 27 22 28 17 30
REMARK H PARENT 2 12 22 29 17 31
ROOT
ATOM      1  C   UNL     1       1.943  -0.274  -0.788  1.00  0.00    -0.030 A 
ATOM      2  C   UNL     1       1.097   0.629  -1.454  1.00  0.00     0.005 A 
ATOM      3  C   UNL     1      -0.290   0.550  -1.315  1.00  0.00     0.012 A 
ATOM      4  C   UNL     1      -0.874  -0.436  -0.513  1.00  0.00     0.022 A 
ATOM      5  C   UNL     1      -0.030  -1.329   0.163  1.00  0.00     0.025 A 
ATOM      6  C   UNL     1       1.375  -1.266   0.040  1.00  0.00     0.060 A 
ENDROOT
BRANCH   1   7
ATOM      7  C   UNL     1       3.442  -0.122  -0.975  1.00  0.00     0.097 C 
BRANCH   7   8
ATOM      8  C   UNL     1       4.035   0.932  -0.022  1.00  0.00     0.266 C 
BRANCH   8   9
ATOM      9  N   UNL     1       5.477   1.163  -0.236  1.00  0.00    -0.340 N 
ATOM     10  C   UNL     1       6.281   0.015   0.192  1.00  0.00     0.332 C 
ATOM     11  C   UNL     1       5.904   2.358   0.499  1.00  0.00     0.332 C 
ATOM     12  H   UNL     1       5.623   1.298  -1.237  1.00  0.00     0.347 HD
ENDBRANCH   8   9
ENDBRANCH   7   8
ENDBRANCH   1   7
BRANCH   6  13
ATOM     13  C   UNL     1       2.218  -2.279   0.784  1.00  0.00     0.416 C 
ATOM     14  F   UNL     1       1.508  -3.046   1.661  1.00  0.00    -0.166 F 
ATOM     15  F   UNL     1       2.842  -3.157  -0.050  1.00  0.00    -0.166 F 
ATOM     16  F   UNL     1       3.205  -1.703   1.528  1.00  0.00    -0.166 F 
ENDBRANCH   6  13
BRANCH   4  17
ATOM     17  C   UNL     1      -2.344  -0.491  -0.366  1.00  0.00     0.180 A 
ATOM     18  O   UNL     1      -2.911   0.754  -0.124  1.00  0.00    -0.452 OA
ATOM     19  C   UNL     1      -3.052  -1.630  -0.480  1.00  0.00     0.208 A 
ATOM     20  C   UNL     1      -4.271   0.844   0.030  1.00  0.00     0.142 A 
ATOM     21  C   UNL     1      -4.524  -1.566  -0.328  1.00  0.00     0.238 A 
ATOM     22  C   UNL     1      -4.797   2.111   0.286  1.00  0.00     0.048 A 
ATOM     23  C   UNL     1      -5.119  -0.256  -0.058  1.00  0.00     0.110 A 
ATOM     24  O   UNL     1      -5.206  -2.583  -0.428  1.00  0.00    -0.285 OA
ATOM     25  C   UNL     1      -6.174   2.273   0.452  1.00  0.00     0.008 A 
ATOM     26  C   UNL     1      -6.497  -0.094   0.107  1.00  0.00     0.130 A 
ATOM     27  C   UNL     1      -7.024   1.169   0.363  1.00  0.00     0.047 A 
BRANCH  19  28
ATOM     28  O   UNL     1      -2.499  -2.869  -0.748  1.00  0.00    -0.502 OA
ATOM     29  H   UNL     1      -3.051  -3.624  -0.814  1.00  0.00     0.293 HD
ENDBRANCH  19  28
BRANCH  26  30
ATOM     30  O   UNL     1      -7.386  -1.131   0.032  1.00  0.00    -0.507 OA
ATOM     31  H   UNL     1      -8.302  -0.972   0.150  1.00  0.00     0.293 HD
ENDBRANCH  26  30
ENDBRANCH   4  17
TORSDOF 7
