REMARK SMILES CCc1cc(-c2oc3cccc(O)c3c(=O)c2O)ccc1C
REMARK SMILES IDX 6 1 7 2 8 3 9 4 10 5 11 6 12 7 14 8 15 9 16 10 17 11 5 12
REMARK SMILES IDX 3 13 4 14 21 15 20 16 19 17 22 18 2 19 1 20 18 21 13 23
REMARK H PARENT 18 22 13 24
ROOT
ATOM      1  C   UNL     1      -0.886   0.178   0.008  1.00  0.00     0.180 A 
ATOM      2  O   UNL     1      -1.796  -0.595   0.721  1.00  0.00    -0.452 OA
ATOM      3  C   UNL     1      -3.125  -0.532   0.387  1.00  0.00     0.142 A 
ATOM      4  C   UNL     1      -4.000  -1.336   1.118  1.00  0.00     0.048 A 
ATOM      5  C   UNL     1      -5.367  -1.318   0.831  1.00  0.00     0.008 A 
ATOM      6  C   UNL     1      -5.858  -0.497  -0.187  1.00  0.00     0.047 A 
ATOM      7  C   UNL     1      -4.982   0.304  -0.914  1.00  0.00     0.130 A 
ATOM      8  C   UNL     1      -3.614   0.285  -0.627  1.00  0.00     0.110 A 
ATOM      9  C   UNL     1      -2.659   1.112  -1.368  1.00  0.00     0.238 A 
ATOM     10  O   UNL     1      -3.015   1.865  -2.271  1.00  0.00    -0.285 OA
ATOM     11  C   UNL     1      -1.231   1.012  -0.990  1.00  0.00     0.208 A 
ENDROOT
BRANCH   1  12
ATOM     12  C   UNL     1       0.505   0.006   0.478  1.00  0.00     0.022 A 
ATOM     13  C   UNL     1       2.886  -0.404   0.038  1.00  0.00    -0.045 A 
ATOM     14  C   UNL     1       1.564  -0.215  -0.413  1.00  0.00     0.016 A 
ATOM     15  C   UNL     1       3.152  -0.362   1.420  1.00  0.00    -0.048 A 
ATOM     16  C   UNL     1       2.090  -0.158   2.313  1.00  0.00     0.004 A 
ATOM     17  C   UNL     1       0.784   0.022   1.849  1.00  0.00     0.012 A 
ATOM     18  C   UNL     1       4.538  -0.556   1.972  1.00  0.00     0.044 C 
BRANCH  13  19
ATOM     19  C   UNL     1       3.971  -0.614  -0.994  1.00  0.00     0.032 C 
ATOM     20  C   UNL     1       4.528   0.705  -1.509  1.00  0.00     0.009 C 
ENDBRANCH  13  19
ENDBRANCH   1  12
BRANCH  11  21
ATOM     21  O   UNL     1      -0.340   1.807  -1.688  1.00  0.00    -0.502 OA
ATOM     22  H   UNL     1      -0.648   2.367  -2.373  1.00  0.00     0.293 HD
ENDBRANCH  11  21
BRANCH   7  23
ATOM     23  O   UNL     1      -5.529   1.085  -1.896  1.00  0.00    -0.507 OA
ATOM     24  H   UNL     1      -6.453   1.063  -2.051  1.00  0.00     0.293 HD
ENDBRANCH   7  23
TORSDOF 4
