MODEL 1
REMARK VINA RESULT:    -6.420      0.000      0.000
REMARK INTER + INTRA:          -7.877
REMARK INTER:                  -7.734
REMARK INTRA:                  -0.143
REMARK UNBOUND:                -0.143
REMARK SMILES [NH3+]CCNC(=O)c1ccc(Cl)cn1
REMARK SMILES IDX 3 1 2 2 1 3 4 7 5 8 6 9 7 11 8 12 13 13 9 14 12 15 10 16
REMARK SMILES IDX 11 17
REMARK H PARENT 1 4 1 5 1 6 4 10
ROOT
ATOM      1  C   UNL     1      52.609 155.416  28.103  1.00  0.00     0.177 C 
ENDROOT
BRANCH   1   2
ATOM      2  C   UNL     1      52.355 153.948  28.474  1.00  0.00     0.280 C 
BRANCH   2   3
ATOM      3  N   UNL     1      53.606 153.185  28.568  1.00  0.00    -0.356 N 
ATOM      4  H   UNL     1      54.308 153.606  27.961  1.00  0.00     0.344 HD
ATOM      5  H   UNL     1      53.439 152.221  28.278  1.00  0.00     0.344 HD
ATOM      6  H   UNL     1      53.940 153.196  29.533  1.00  0.00     0.344 HD
ENDBRANCH   2   3
ENDBRANCH   1   2
BRANCH   1   7
ATOM      7  N   UNL     1      51.810 156.333  28.892  1.00  0.00    -0.345 N 
ATOM      8  C   UNL     1      52.234 157.602  29.219  1.00  0.00     0.270 C 
ATOM      9  O   UNL     1      53.344 158.046  28.946  1.00  0.00    -0.268 OA
ATOM     10  H   UNL     1      50.926 156.036  29.208  1.00  0.00     0.164 HD
BRANCH   8  11
ATOM     11  C   UNL     1      51.211 158.430  29.936  1.00  0.00     0.128 A 
ATOM     12  C   UNL     1      51.528 159.721  30.346  1.00  0.00     0.036 A 
ATOM     13  N   UNL     1      49.994 157.847  30.140  1.00  0.00    -0.250 NA
ATOM     14  C   UNL     1      50.550 160.465  31.006  1.00  0.00     0.024 A 
ATOM     15  C   UNL     1      49.071 158.601  30.786  1.00  0.00     0.132 A 
ATOM     16  C   UNL     1      49.301 159.896  31.231  1.00  0.00     0.059 A 
ATOM     17  Cl  UNL     1      48.072 160.779  32.040  1.00  0.00    -0.083 Cl
ENDBRANCH   8  11
ENDBRANCH   1   7
TORSDOF 4
ENDMDL
MODEL 2
REMARK VINA RESULT:    -6.261      7.123     10.148
REMARK INTER + INTRA:          -7.686
REMARK INTER:                  -7.507
REMARK INTRA:                  -0.179
REMARK UNBOUND:                -0.143
REMARK SMILES [NH3+]CCNC(=O)c1ccc(Cl)cn1
REMARK SMILES IDX 3 1 2 2 1 3 4 7 5 8 6 9 7 11 8 12 13 13 9 14 12 15 10 16
REMARK SMILES IDX 11 17
REMARK H PARENT 1 4 1 5 1 6 4 10
ROOT
ATOM      1  C   UNL     1      52.048 152.806  27.044  1.00  0.00     0.177 C 
ENDROOT
BRANCH   1   2
ATOM      2  C   UNL     1      52.692 153.818  28.004  1.00  0.00     0.280 C 
BRANCH   2   3
ATOM      3  N   UNL     1      53.836 153.239  28.720  1.00  0.00    -0.356 N 
ATOM      4  H   UNL     1      54.000 153.763  29.578  1.00  0.00     0.344 HD
ATOM      5  H   UNL     1      54.666 153.286  28.128  1.00  0.00     0.344 HD
ATOM      6  H   UNL     1      53.637 152.265  28.949  1.00  0.00     0.344 HD
ENDBRANCH   2   3
ENDBRANCH   1   2
BRANCH   1   7
ATOM      7  N   UNL     1      53.030 151.976  26.374  1.00  0.00    -0.345 N 
ATOM      8  C   UNL     1      53.660 152.358  25.210  1.00  0.00     0.270 C 
ATOM      9  O   UNL     1      53.398 153.384  24.592  1.00  0.00    -0.268 OA
ATOM     10  H   UNL     1      53.257 151.103  26.768  1.00  0.00     0.164 HD
BRANCH   8  11
ATOM     11  C   UNL     1      54.726 151.412  24.746  1.00  0.00     0.128 A 
ATOM     12  C   UNL     1      54.393 150.107  24.400  1.00  0.00     0.036 A 
ATOM     13  N   UNL     1      55.995 151.913  24.683  1.00  0.00    -0.250 NA
ATOM     14  C   UNL     1      55.410 149.256  23.968  1.00  0.00     0.024 A 
ATOM     15  C   UNL     1      56.955 151.056  24.260  1.00  0.00     0.132 A 
ATOM     16  C   UNL     1      56.713 149.737  23.897  1.00  0.00     0.059 A 
ATOM     17  Cl  UNL     1      57.992 148.721  23.370  1.00  0.00    -0.083 Cl
ENDBRANCH   8  11
ENDBRANCH   1   7
TORSDOF 4
ENDMDL
MODEL 3
REMARK VINA RESULT:    -6.234      3.651      5.491
REMARK INTER + INTRA:          -7.652
REMARK INTER:                  -7.499
REMARK INTRA:                  -0.153
REMARK UNBOUND:                -0.143
REMARK SMILES [NH3+]CCNC(=O)c1ccc(Cl)cn1
REMARK SMILES IDX 3 1 2 2 1 3 4 7 5 8 6 9 7 11 8 12 13 13 9 14 12 15 10 16
REMARK SMILES IDX 11 17
REMARK H PARENT 1 4 1 5 1 6 4 10
ROOT
ATOM      1  C   UNL     1      52.842 161.906  30.750  1.00  0.00     0.177 C 
ENDROOT
BRANCH   1   2
ATOM      2  C   UNL     1      54.284 162.219  31.174  1.00  0.00     0.280 C 
BRANCH   2   3
ATOM      3  N   UNL     1      55.259 161.410  30.431  1.00  0.00    -0.356 N 
ATOM      4  H   UNL     1      55.193 161.628  29.437  1.00  0.00     0.344 HD
ATOM      5  H   UNL     1      55.060 160.420  30.577  1.00  0.00     0.344 HD
ATOM      6  H   UNL     1      56.200 161.621  30.763  1.00  0.00     0.344 HD
ENDBRANCH   2   3
ENDBRANCH   1   2
BRANCH   1   7
ATOM      7  N   UNL     1      52.641 160.498  30.466  1.00  0.00    -0.345 N 
ATOM      8  C   UNL     1      51.410 159.969  30.147  1.00  0.00     0.270 C 
ATOM      9  O   UNL     1      50.366 160.611  30.149  1.00  0.00    -0.268 OA
ATOM     10  H   UNL     1      53.417 159.894  30.503  1.00  0.00     0.164 HD
BRANCH   8  11
ATOM     11  C   UNL     1      51.439 158.518  29.772  1.00  0.00     0.128 A 
ATOM     12  C   UNL     1      50.369 157.694  30.106  1.00  0.00     0.036 A 
ATOM     13  N   UNL     1      52.546 158.089  29.097  1.00  0.00    -0.250 NA
ATOM     14  C   UNL     1      50.428 156.351  29.736  1.00  0.00     0.024 A 
ATOM     15  C   UNL     1      52.566 156.777  28.757  1.00  0.00     0.132 A 
ATOM     16  C   UNL     1      51.545 155.883  29.051  1.00  0.00     0.059 A 
ATOM     17  Cl  UNL     1      51.655 154.237  28.580  1.00  0.00    -0.083 Cl
ENDBRANCH   8  11
ENDBRANCH   1   7
TORSDOF 4
ENDMDL
MODEL 4
REMARK VINA RESULT:    -6.107      6.607      9.068
REMARK INTER + INTRA:          -7.499
REMARK INTER:                  -7.391
REMARK INTRA:                  -0.108
REMARK UNBOUND:                -0.143
REMARK SMILES [NH3+]CCNC(=O)c1ccc(Cl)cn1
REMARK SMILES IDX 3 1 2 2 1 3 4 7 5 8 6 9 7 11 8 12 13 13 9 14 12 15 10 16
REMARK SMILES IDX 11 17
REMARK H PARENT 1 4 1 5 1 6 4 10
ROOT
ATOM      1  C   UNL     1      51.578 154.145  27.380  1.00  0.00     0.177 C 
ENDROOT
BRANCH   1   2
ATOM      2  C   UNL     1      52.057 153.748  28.784  1.00  0.00     0.280 C 
BRANCH   2   3
ATOM      3  N   UNL     1      53.490 153.427  28.801  1.00  0.00    -0.356 N 
ATOM      4  H   UNL     1      53.822 153.404  29.765  1.00  0.00     0.344 HD
ATOM      5  H   UNL     1      54.004 154.140  28.281  1.00  0.00     0.344 HD
ATOM      6  H   UNL     1      53.641 152.516  28.367  1.00  0.00     0.344 HD
ENDBRANCH   2   3
ENDBRANCH   1   2
BRANCH   1   7
ATOM      7  N   UNL     1      52.194 153.346  26.338  1.00  0.00    -0.345 N 
ATOM      8  C   UNL     1      53.186 153.831  25.515  1.00  0.00     0.270 C 
ATOM      9  O   UNL     1      53.583 154.990  25.527  1.00  0.00    -0.268 OA
ATOM     10  H   UNL     1      51.891 152.418  26.215  1.00  0.00     0.164 HD
BRANCH   8  11
ATOM     11  C   UNL     1      53.772 152.810  24.586  1.00  0.00     0.128 A 
ATOM     12  C   UNL     1      54.273 153.205  23.350  1.00  0.00     0.036 A 
ATOM     13  N   UNL     1      53.783 151.520  25.033  1.00  0.00    -0.250 NA
ATOM     14  C   UNL     1      54.816 152.229  22.514  1.00  0.00     0.024 A 
ATOM     15  C   UNL     1      54.317 150.601  24.192  1.00  0.00     0.132 A 
ATOM     16  C   UNL     1      54.837 150.905  22.941  1.00  0.00     0.059 A 
ATOM     17  Cl  UNL     1      55.496 149.676  21.940  1.00  0.00    -0.083 Cl
ENDBRANCH   8  11
ENDBRANCH   1   7
TORSDOF 4
ENDMDL
MODEL 5
REMARK VINA RESULT:    -6.104      6.982      9.956
REMARK INTER + INTRA:          -7.496
REMARK INTER:                  -7.320
REMARK INTRA:                  -0.176
REMARK UNBOUND:                -0.143
REMARK SMILES [NH3+]CCNC(=O)c1ccc(Cl)cn1
REMARK SMILES IDX 3 1 2 2 1 3 4 7 5 8 6 9 7 11 8 12 13 13 9 14 12 15 10 16
REMARK SMILES IDX 11 17
REMARK H PARENT 1 4 1 5 1 6 4 10
ROOT
ATOM      1  C   UNL     1      52.603 154.270  26.597  1.00  0.00     0.177 C 
ENDROOT
BRANCH   1   2
ATOM      2  C   UNL     1      52.550 153.970  28.102  1.00  0.00     0.280 C 
BRANCH   2   3
ATOM      3  N   UNL     1      53.736 153.230  28.553  1.00  0.00    -0.356 N 
ATOM      4  H   UNL     1      54.152 152.741  27.761  1.00  0.00     0.344 HD
ATOM      5  H   UNL     1      53.462 152.553  29.266  1.00  0.00     0.344 HD
ATOM      6  H   UNL     1      54.415 153.882  28.946  1.00  0.00     0.344 HD
ENDBRANCH   2   3
ENDBRANCH   1   2
BRANCH   1   7
ATOM      7  N   UNL     1      53.031 153.124  25.818  1.00  0.00    -0.345 N 
ATOM      8  C   UNL     1      53.745 153.242  24.646  1.00  0.00     0.270 C 
ATOM      9  O   UNL     1      54.015 154.312  24.112  1.00  0.00    -0.268 OA
ATOM     10  H   UNL     1      52.804 152.222  26.142  1.00  0.00     0.164 HD
BRANCH   8  11
ATOM     11  C   UNL     1      54.194 151.937  24.061  1.00  0.00     0.128 A 
ATOM     12  C   UNL     1      54.103 150.772  24.816  1.00  0.00     0.036 A 
ATOM     13  N   UNL     1      54.669 151.978  22.782  1.00  0.00    -0.250 NA
ATOM     14  C   UNL     1      54.525 149.575  24.238  1.00  0.00     0.024 A 
ATOM     15  C   UNL     1      55.070 150.794  22.256  1.00  0.00     0.132 A 
ATOM     16  C   UNL     1      55.017 149.585  22.937  1.00  0.00     0.059 A 
ATOM     17  Cl  UNL     1      55.546 148.133  22.192  1.00  0.00    -0.083 Cl
ENDBRANCH   8  11
ENDBRANCH   1   7
TORSDOF 4
ENDMDL
MODEL 6
REMARK VINA RESULT:    -6.080      7.304      9.220
REMARK INTER + INTRA:          -7.468
REMARK INTER:                  -7.322
REMARK INTRA:                  -0.145
REMARK UNBOUND:                -0.143
REMARK SMILES [NH3+]CCNC(=O)c1ccc(Cl)cn1
REMARK SMILES IDX 3 1 2 2 1 3 4 7 5 8 6 9 7 11 8 12 13 13 9 14 12 15 10 16
REMARK SMILES IDX 11 17
REMARK H PARENT 1 4 1 5 1 6 4 10
ROOT
ATOM      1  C   UNL     1      56.280 148.605  23.442  1.00  0.00     0.177 C 
ENDROOT
BRANCH   1   2
ATOM      2  C   UNL     1      57.751 148.759  23.028  1.00  0.00     0.280 C 
BRANCH   2   3
ATOM      3  N   UNL     1      58.601 149.138  24.164  1.00  0.00    -0.356 N 
ATOM      4  H   UNL     1      59.271 149.846  23.866  1.00  0.00     0.344 HD
ATOM      5  H   UNL     1      59.103 148.315  24.502  1.00  0.00     0.344 HD
ATOM      6  H   UNL     1      58.020 149.512  24.914  1.00  0.00     0.344 HD
ENDBRANCH   2   3
ENDBRANCH   1   2
BRANCH   1   7
ATOM      7  N   UNL     1      55.645 149.881  23.710  1.00  0.00    -0.345 N 
ATOM      8  C   UNL     1      54.486 149.997  24.446  1.00  0.00     0.270 C 
ATOM      9  O   UNL     1      53.844 149.044  24.871  1.00  0.00    -0.268 OA
ATOM     10  H   UNL     1      56.060 150.699  23.353  1.00  0.00     0.164 HD
BRANCH   8  11
ATOM     11  C   UNL     1      54.061 151.411  24.709  1.00  0.00     0.128 A 
ATOM     12  C   UNL     1      54.228 152.380  23.725  1.00  0.00     0.036 A 
ATOM     13  N   UNL     1      53.512 151.660  25.934  1.00  0.00    -0.250 NA
ATOM     14  C   UNL     1      53.816 153.683  24.003  1.00  0.00     0.024 A 
ATOM     15  C   UNL     1      53.126 152.938  26.167  1.00  0.00     0.132 A 
ATOM     16  C   UNL     1      53.256 153.968  25.244  1.00  0.00     0.059 A 
ATOM     17  Cl  UNL     1      52.738 155.559  25.623  1.00  0.00    -0.083 Cl
ENDBRANCH   8  11
ENDBRANCH   1   7
TORSDOF 4
ENDMDL
MODEL 7
REMARK VINA RESULT:    -6.030      2.611      3.713
REMARK INTER + INTRA:          -7.407
REMARK INTER:                  -7.084
REMARK INTRA:                  -0.323
REMARK UNBOUND:                -0.143
REMARK SMILES [NH3+]CCNC(=O)c1ccc(Cl)cn1
REMARK SMILES IDX 3 1 2 2 1 3 4 7 5 8 6 9 7 11 8 12 13 13 9 14 12 15 10 16
REMARK SMILES IDX 11 17
REMARK H PARENT 1 4 1 5 1 6 4 10
ROOT
ATOM      1  C   UNL     1      52.328 152.703  26.023  1.00  0.00     0.177 C 
ENDROOT
BRANCH   1   2
ATOM      2  C   UNL     1      53.604 152.915  25.193  1.00  0.00     0.280 C 
BRANCH   2   3
ATOM      3  N   UNL     1      54.809 152.523  25.936  1.00  0.00    -0.356 N 
ATOM      4  H   UNL     1      54.614 151.683  26.480  1.00  0.00     0.344 HD
ATOM      5  H   UNL     1      55.081 153.280  26.564  1.00  0.00     0.344 HD
ATOM      6  H   UNL     1      55.567 152.336  25.280  1.00  0.00     0.344 HD
ENDBRANCH   2   3
ENDBRANCH   1   2
BRANCH   1   7
ATOM      7  N   UNL     1      51.975 153.874  26.803  1.00  0.00    -0.345 N 
ATOM      8  C   UNL     1      52.526 154.143  28.036  1.00  0.00     0.270 C 
ATOM      9  O   UNL     1      53.297 153.392  28.622  1.00  0.00    -0.268 OA
ATOM     10  H   UNL     1      51.314 154.503  26.435  1.00  0.00     0.164 HD
BRANCH   8  11
ATOM     11  C   UNL     1      52.118 155.461  28.621  1.00  0.00     0.128 A 
ATOM     12  C   UNL     1      50.926 155.565  29.331  1.00  0.00     0.036 A 
ATOM     13  N   UNL     1      52.974 156.505  28.418  1.00  0.00    -0.250 NA
ATOM     14  C   UNL     1      50.581 156.806  29.865  1.00  0.00     0.024 A 
ATOM     15  C   UNL     1      52.603 157.694  28.951  1.00  0.00     0.132 A 
ATOM     16  C   UNL     1      51.432 157.890  29.672  1.00  0.00     0.059 A 
ATOM     17  Cl  UNL     1      51.041 159.432  30.314  1.00  0.00    -0.083 Cl
ENDBRANCH   8  11
ENDBRANCH   1   7
TORSDOF 4
ENDMDL
MODEL 8
REMARK VINA RESULT:    -5.986      6.324      9.298
REMARK INTER + INTRA:          -7.354
REMARK INTER:                  -7.218
REMARK INTRA:                  -0.136
REMARK UNBOUND:                -0.143
REMARK SMILES [NH3+]CCNC(=O)c1ccc(Cl)cn1
REMARK SMILES IDX 3 1 2 2 1 3 4 7 5 8 6 9 7 11 8 12 13 13 9 14 12 15 10 16
REMARK SMILES IDX 11 17
REMARK H PARENT 1 4 1 5 1 6 4 10
ROOT
ATOM      1  C   UNL     1      52.783 153.847  28.156  1.00  0.00     0.177 C 
ENDROOT
BRANCH   1   2
ATOM      2  C   UNL     1      52.457 155.347  28.124  1.00  0.00     0.280 C 
BRANCH   2   3
ATOM      3  N   UNL     1      52.103 155.857  29.456  1.00  0.00    -0.356 N 
ATOM      4  H   UNL     1      52.444 156.812  29.555  1.00  0.00     0.344 HD
ATOM      5  H   UNL     1      52.531 155.266  30.170  1.00  0.00     0.344 HD
ATOM      6  H   UNL     1      51.089 155.844  29.567  1.00  0.00     0.344 HD
ENDBRANCH   2   3
ENDBRANCH   1   2
BRANCH   1   7
ATOM      7  N   UNL     1      53.402 153.389  26.927  1.00  0.00    -0.345 N 
ATOM      8  C   UNL     1      53.059 152.204  26.315  1.00  0.00     0.270 C 
ATOM      9  O   UNL     1      52.266 151.394  26.783  1.00  0.00    -0.268 OA
ATOM     10  H   UNL     1      54.097 153.949  26.512  1.00  0.00     0.164 HD
BRANCH   8  11
ATOM     11  C   UNL     1      53.729 151.974  24.994  1.00  0.00     0.128 A 
ATOM     12  C   UNL     1      54.145 150.694  24.641  1.00  0.00     0.036 A 
ATOM     13  N   UNL     1      53.884 153.070  24.195  1.00  0.00    -0.250 NA
ATOM     14  C   UNL     1      54.760 150.516  23.402  1.00  0.00     0.024 A 
ATOM     15  C   UNL     1      54.488 152.856  23.000  1.00  0.00     0.132 A 
ATOM     16  C   UNL     1      54.935 151.615  22.567  1.00  0.00     0.059 A 
ATOM     17  Cl  UNL     1      55.688 151.436  21.036  1.00  0.00    -0.083 Cl
ENDBRANCH   8  11
ENDBRANCH   1   7
TORSDOF 4
ENDMDL
MODEL 9
REMARK VINA RESULT:    -5.967      5.068      6.602
REMARK INTER + INTRA:          -7.331
REMARK INTER:                  -7.175
REMARK INTRA:                  -0.156
REMARK UNBOUND:                -0.143
REMARK SMILES [NH3+]CCNC(=O)c1ccc(Cl)cn1
REMARK SMILES IDX 3 1 2 2 1 3 4 7 5 8 6 9 7 11 8 12 13 13 9 14 12 15 10 16
REMARK SMILES IDX 11 17
REMARK H PARENT 1 4 1 5 1 6 4 10
ROOT
ATOM      1  C   UNL     1      54.445 150.594  23.966  1.00  0.00     0.177 C 
ENDROOT
BRANCH   1   2
ATOM      2  C   UNL     1      54.607 149.127  24.392  1.00  0.00     0.280 C 
BRANCH   2   3
ATOM      3  N   UNL     1      53.408 148.621  25.071  1.00  0.00    -0.356 N 
ATOM      4  H   UNL     1      53.109 149.291  25.780  1.00  0.00     0.344 HD
ATOM      5  H   UNL     1      53.621 147.727  25.517  1.00  0.00     0.344 HD
ATOM      6  H   UNL     1      52.660 148.490  24.390  1.00  0.00     0.344 HD
ENDBRANCH   2   3
ENDBRANCH   1   2
BRANCH   1   7
ATOM      7  N   UNL     1      53.976 151.437  25.049  1.00  0.00    -0.345 N 
ATOM      8  C   UNL     1      53.679 152.771  24.881  1.00  0.00     0.270 C 
ATOM      9  O   UNL     1      53.856 153.387  23.836  1.00  0.00    -0.268 OA
ATOM     10  H   UNL     1      53.863 151.038  25.942  1.00  0.00     0.164 HD
BRANCH   8  11
ATOM     11  C   UNL     1      53.096 153.432  26.093  1.00  0.00     0.128 A 
ATOM     12  C   UNL     1      53.130 154.817  26.212  1.00  0.00     0.036 A 
ATOM     13  N   UNL     1      52.543 152.604  27.028  1.00  0.00    -0.250 NA
ATOM     14  C   UNL     1      52.574 155.398  27.351  1.00  0.00     0.024 A 
ATOM     15  C   UNL     1      52.014 153.206  28.121  1.00  0.00     0.132 A 
ATOM     16  C   UNL     1      52.007 154.579  28.323  1.00  0.00     0.059 A 
ATOM     17  Cl  UNL     1      51.312 155.257  29.738  1.00  0.00    -0.083 Cl
ENDBRANCH   8  11
ENDBRANCH   1   7
TORSDOF 4
ENDMDL
