MODEL 1
REMARK VINA RESULT:    -7.614      0.000      0.000
REMARK INTER + INTRA:          -8.799
REMARK INTER:                  -8.504
REMARK INTRA:                  -0.294
REMARK UNBOUND:                -0.294
REMARK SMILES C#CC[NH2+][C@@H]1CCc2ccccc21
REMARK SMILES IDX 1 1 2 2 3 3 4 4 5 7 6 8 13 9 7 10 12 11 8 12 11 13 9 14
REMARK SMILES IDX 10 15
REMARK H PARENT 4 5 4 6
ROOT
ATOM      1  C   UNL     1      52.958 156.394  26.650  1.00  0.00     0.010 C 
ATOM      2  C   UNL     1      52.796 155.210  26.776  1.00  0.00    -0.047 C 
ATOM      3  C   UNL     1      52.600 153.763  26.929  1.00  0.00     0.352 C 
ENDROOT
BRANCH   3   4
ATOM      4  N   UNL     1      52.524 153.144  25.613  1.00  0.00    -0.330 N 
ATOM      5  H   UNL     1      51.983 153.749  24.997  1.00  0.00     0.347 HD
ATOM      6  H   UNL     1      52.082 152.231  25.725  1.00  0.00     0.347 HD
BRANCH   4   7
ATOM      7  C   UNL     1      53.840 152.931  25.023  1.00  0.00     0.214 C 
ATOM      8  C   UNL     1      54.054 153.652  23.673  1.00  0.00     0.075 C 
ATOM      9  C   UNL     1      54.066 151.501  24.600  1.00  0.00     0.012 A 
ATOM     10  C   UNL     1      55.092 152.825  22.901  1.00  0.00     0.042 C 
ATOM     11  C   UNL     1      53.711 150.336  25.264  1.00  0.00     0.010 A 
ATOM     12  C   UNL     1      54.784 151.448  23.398  1.00  0.00    -0.039 A 
ATOM     13  C   UNL     1      54.070 149.110  24.699  1.00  0.00     0.001 A 
ATOM     14  C   UNL     1      55.156 150.238  22.836  1.00  0.00     0.004 A 
ATOM     15  C   UNL     1      54.788 149.062  23.494  1.00  0.00     0.000 A 
ENDBRANCH   4   7
ENDBRANCH   3   4
TORSDOF 2
ENDMDL
MODEL 2
REMARK VINA RESULT:    -7.566      1.387      5.699
REMARK INTER + INTRA:          -8.745
REMARK INTER:                  -8.564
REMARK INTRA:                  -0.180
REMARK UNBOUND:                -0.294
REMARK SMILES C#CC[NH2+][C@@H]1CCc2ccccc21
REMARK SMILES IDX 1 1 2 2 3 3 4 4 5 7 6 8 13 9 7 10 12 11 8 12 11 13 9 14
REMARK SMILES IDX 10 15
REMARK H PARENT 4 5 4 6
ROOT
ATOM      1  C   UNL     1      54.122 149.472  24.697  1.00  0.00     0.010 C 
ATOM      2  C   UNL     1      54.126 150.671  24.780  1.00  0.00    -0.047 C 
ATOM      3  C   UNL     1      54.131 152.136  24.883  1.00  0.00     0.352 C 
ENDROOT
BRANCH   3   4
ATOM      4  N   UNL     1      53.029 152.564  25.733  1.00  0.00    -0.330 N 
ATOM      5  H   UNL     1      53.303 152.447  26.708  1.00  0.00     0.347 HD
ATOM      6  H   UNL     1      52.217 151.992  25.501  1.00  0.00     0.347 HD
BRANCH   4   7
ATOM      7  C   UNL     1      52.668 153.960  25.513  1.00  0.00     0.214 C 
ATOM      8  C   UNL     1      53.800 154.820  24.908  1.00  0.00     0.075 C 
ATOM      9  C   UNL     1      52.421 154.709  26.798  1.00  0.00     0.012 A 
ATOM     10  C   UNL     1      53.545 156.260  25.376  1.00  0.00     0.042 C 
ATOM     11  C   UNL     1      51.755 154.279  27.936  1.00  0.00     0.010 A 
ATOM     12  C   UNL     1      52.915 156.017  26.711  1.00  0.00    -0.039 A 
ATOM     13  C   UNL     1      51.604 155.172  28.999  1.00  0.00     0.001 A 
ATOM     14  C   UNL     1      52.759 156.915  27.754  1.00  0.00     0.004 A 
ATOM     15  C   UNL     1      52.102 156.481  28.907  1.00  0.00     0.000 A 
ENDBRANCH   4   7
ENDBRANCH   3   4
TORSDOF 2
ENDMDL
MODEL 3
REMARK VINA RESULT:    -7.466      1.218      2.444
REMARK INTER + INTRA:          -8.633
REMARK INTER:                  -8.362
REMARK INTRA:                  -0.271
REMARK UNBOUND:                -0.294
REMARK SMILES C#CC[NH2+][C@@H]1CCc2ccccc21
REMARK SMILES IDX 1 1 2 2 3 3 4 4 5 7 6 8 13 9 7 10 12 11 8 12 11 13 9 14
REMARK SMILES IDX 10 15
REMARK H PARENT 4 5 4 6
ROOT
ATOM      1  C   UNL     1      52.636 156.347  27.625  1.00  0.00     0.010 C 
ATOM      2  C   UNL     1      53.057 156.146  26.517  1.00  0.00    -0.047 C 
ATOM      3  C   UNL     1      53.571 155.900  25.164  1.00  0.00     0.352 C 
ENDROOT
BRANCH   3   4
ATOM      4  N   UNL     1      54.414 154.713  25.175  1.00  0.00    -0.330 N 
ATOM      5  H   UNL     1      54.876 154.649  26.081  1.00  0.00     0.347 HD
ATOM      6  H   UNL     1      55.090 154.805  24.416  1.00  0.00     0.347 HD
BRANCH   4   7
ATOM      7  C   UNL     1      53.655 153.490  24.948  1.00  0.00     0.214 C 
ATOM      8  C   UNL     1      53.621 152.531  26.159  1.00  0.00     0.075 C 
ATOM      9  C   UNL     1      54.288 152.593  23.914  1.00  0.00     0.012 A 
ATOM     10  C   UNL     1      53.438 151.118  25.586  1.00  0.00     0.042 C 
ATOM     11  C   UNL     1      54.884 152.944  22.712  1.00  0.00     0.010 A 
ATOM     12  C   UNL     1      54.154 151.247  24.279  1.00  0.00    -0.039 A 
ATOM     13  C   UNL     1      55.364 151.928  21.883  1.00  0.00     0.001 A 
ATOM     14  C   UNL     1      54.615 150.231  23.458  1.00  0.00     0.004 A 
ATOM     15  C   UNL     1      55.229 150.581  22.254  1.00  0.00     0.000 A 
ENDBRANCH   4   7
ENDBRANCH   3   4
TORSDOF 2
ENDMDL
MODEL 4
REMARK VINA RESULT:    -7.432      9.904     11.987
REMARK INTER + INTRA:          -8.596
REMARK INTER:                  -8.359
REMARK INTRA:                  -0.237
REMARK UNBOUND:                -0.294
REMARK SMILES C#CC[NH2+][C@@H]1CCc2ccccc21
REMARK SMILES IDX 1 1 2 2 3 3 4 4 5 7 6 8 13 9 7 10 12 11 8 12 11 13 9 14
REMARK SMILES IDX 10 15
REMARK H PARENT 4 5 4 6
ROOT
ATOM      1  C   UNL     1      55.624 161.985  32.256  1.00  0.00     0.010 C 
ATOM      2  C   UNL     1      54.636 162.126  31.586  1.00  0.00    -0.047 C 
ATOM      3  C   UNL     1      53.430 162.301  30.768  1.00  0.00     0.352 C 
ENDROOT
BRANCH   3   4
ATOM      4  N   UNL     1      52.250 162.154  31.610  1.00  0.00    -0.330 N 
ATOM      5  H   UNL     1      51.520 162.773  31.261  1.00  0.00     0.347 HD
ATOM      6  H   UNL     1      52.518 162.391  32.565  1.00  0.00     0.347 HD
BRANCH   4   7
ATOM      7  C   UNL     1      51.741 160.787  31.618  1.00  0.00     0.214 C 
ATOM      8  C   UNL     1      51.790 160.084  30.243  1.00  0.00     0.075 C 
ATOM      9  C   UNL     1      50.261 160.717  31.901  1.00  0.00     0.012 A 
ATOM     10  C   UNL     1      50.663 159.042  30.251  1.00  0.00     0.042 C 
ATOM     11  C   UNL     1      49.521 161.445  32.820  1.00  0.00     0.010 A 
ATOM     12  C   UNL     1      49.657 159.719  31.126  1.00  0.00    -0.039 A 
ATOM     13  C   UNL     1      48.157 161.174  32.943  1.00  0.00     0.001 A 
ATOM     14  C   UNL     1      48.307 159.432  31.251  1.00  0.00     0.004 A 
ATOM     15  C   UNL     1      47.555 160.173  32.164  1.00  0.00     0.000 A 
ENDBRANCH   4   7
ENDBRANCH   3   4
TORSDOF 2
ENDMDL
MODEL 5
REMARK VINA RESULT:    -7.222      1.780      2.821
REMARK INTER + INTRA:          -8.360
REMARK INTER:                  -8.178
REMARK INTRA:                  -0.183
REMARK UNBOUND:                -0.294
REMARK SMILES C#CC[NH2+][C@@H]1CCc2ccccc21
REMARK SMILES IDX 1 1 2 2 3 3 4 4 5 7 6 8 13 9 7 10 12 11 8 12 11 13 9 14
REMARK SMILES IDX 10 15
REMARK H PARENT 4 5 4 6
ROOT
ATOM      1  C   UNL     1      53.372 156.184  25.572  1.00  0.00     0.010 C 
ATOM      2  C   UNL     1      54.110 155.406  25.028  1.00  0.00    -0.047 C 
ATOM      3  C   UNL     1      55.010 154.456  24.363  1.00  0.00     0.352 C 
ENDROOT
BRANCH   3   4
ATOM      4  N   UNL     1      55.106 153.242  25.162  1.00  0.00    -0.330 N 
ATOM      5  H   UNL     1      54.541 153.357  26.002  1.00  0.00     0.347 HD
ATOM      6  H   UNL     1      56.090 153.096  25.389  1.00  0.00     0.347 HD
BRANCH   4   7
ATOM      7  C   UNL     1      54.638 152.064  24.441  1.00  0.00     0.214 C 
ATOM      8  C   UNL     1      53.792 151.093  25.295  1.00  0.00     0.075 C 
ATOM      9  C   UNL     1      55.762 151.147  24.028  1.00  0.00     0.012 A 
ATOM     10  C   UNL     1      53.979 149.700  24.677  1.00  0.00     0.042 C 
ATOM     11  C   UNL     1      57.008 151.481  23.519  1.00  0.00     0.010 A 
ATOM     12  C   UNL     1      55.378 149.806  24.157  1.00  0.00    -0.039 A 
ATOM     13  C   UNL     1      57.878 150.451  23.156  1.00  0.00     0.001 A 
ATOM     14  C   UNL     1      56.229 148.777  23.788  1.00  0.00     0.004 A 
ATOM     15  C   UNL     1      57.490 149.108  23.290  1.00  0.00     0.000 A 
ENDBRANCH   4   7
ENDBRANCH   3   4
TORSDOF 2
ENDMDL
MODEL 6
REMARK VINA RESULT:    -7.172      6.082     10.735
REMARK INTER + INTRA:          -8.305
REMARK INTER:                  -8.115
REMARK INTRA:                  -0.190
REMARK UNBOUND:                -0.294
REMARK SMILES C#CC[NH2+][C@@H]1CCc2ccccc21
REMARK SMILES IDX 1 1 2 2 3 3 4 4 5 7 6 8 13 9 7 10 12 11 8 12 11 13 9 14
REMARK SMILES IDX 10 15
REMARK H PARENT 4 5 4 6
ROOT
ATOM      1  C   UNL     1      52.706 156.431  26.870  1.00  0.00     0.010 C 
ATOM      2  C   UNL     1      52.676 156.915  27.969  1.00  0.00    -0.047 C 
ATOM      3  C   UNL     1      52.639 157.505  29.313  1.00  0.00     0.352 C 
ENDROOT
BRANCH   3   4
ATOM      4  N   UNL     1      51.259 157.802  29.673  1.00  0.00    -0.330 N 
ATOM      5  H   UNL     1      51.057 157.375  30.576  1.00  0.00     0.347 HD
ATOM      6  H   UNL     1      50.659 157.426  28.939  1.00  0.00     0.347 HD
BRANCH   4   7
ATOM      7  C   UNL     1      51.005 159.235  29.765  1.00  0.00     0.214 C 
ATOM      8  C   UNL     1      52.107 160.028  30.501  1.00  0.00     0.075 C 
ATOM      9  C   UNL     1      49.815 159.562  30.632  1.00  0.00     0.012 A 
ATOM     10  C   UNL     1      51.422 161.262  31.105  1.00  0.00     0.042 C 
ATOM     11  C   UNL     1      48.591 158.915  30.702  1.00  0.00     0.010 A 
ATOM     12  C   UNL     1      50.056 160.720  31.385  1.00  0.00    -0.039 A 
ATOM     13  C   UNL     1      47.610 159.431  31.552  1.00  0.00     0.001 A 
ATOM     14  C   UNL     1      49.086 161.248  32.220  1.00  0.00     0.004 A 
ATOM     15  C   UNL     1      47.857 160.590  32.305  1.00  0.00     0.000 A 
ENDBRANCH   4   7
ENDBRANCH   3   4
TORSDOF 2
ENDMDL
MODEL 7
REMARK VINA RESULT:    -7.091      2.243      5.155
REMARK INTER + INTRA:          -8.214
REMARK INTER:                  -7.676
REMARK INTRA:                  -0.538
REMARK UNBOUND:                -0.294
REMARK SMILES C#CC[NH2+][C@@H]1CCc2ccccc21
REMARK SMILES IDX 1 1 2 2 3 3 4 4 5 7 6 8 13 9 7 10 12 11 8 12 11 13 9 14
REMARK SMILES IDX 10 15
REMARK H PARENT 4 5 4 6
ROOT
ATOM      1  C   UNL     1      55.073 151.901  20.067  1.00  0.00     0.010 C 
ATOM      2  C   UNL     1      55.235 150.907  20.723  1.00  0.00    -0.047 C 
ATOM      3  C   UNL     1      55.432 149.693  21.525  1.00  0.00     0.352 C 
ENDROOT
BRANCH   3   4
ATOM      4  N   UNL     1      56.416 149.957  22.566  1.00  0.00    -0.330 N 
ATOM      5  H   UNL     1      56.851 150.861  22.385  1.00  0.00     0.347 HD
ATOM      6  H   UNL     1      57.101 149.201  22.544  1.00  0.00     0.347 HD
BRANCH   4   7
ATOM      7  C   UNL     1      55.823 149.981  23.898  1.00  0.00     0.214 C 
ATOM      8  C   UNL     1      54.538 149.134  24.035  1.00  0.00     0.075 C 
ATOM      9  C   UNL     1      55.289 151.340  24.274  1.00  0.00     0.012 A 
ATOM     10  C   UNL     1      53.712 149.781  25.155  1.00  0.00     0.042 C 
ATOM     11  C   UNL     1      55.854 152.585  24.046  1.00  0.00     0.010 A 
ATOM     12  C   UNL     1      54.094 151.219  24.995  1.00  0.00    -0.039 A 
ATOM     13  C   UNL     1      55.197 153.717  24.533  1.00  0.00     0.001 A 
ATOM     14  C   UNL     1      53.440 152.333  25.495  1.00  0.00     0.004 A 
ATOM     15  C   UNL     1      53.998 153.591  25.253  1.00  0.00     0.000 A 
ENDBRANCH   4   7
ENDBRANCH   3   4
TORSDOF 2
ENDMDL
MODEL 8
REMARK VINA RESULT:    -7.049      2.429      5.490
REMARK INTER + INTRA:          -8.167
REMARK INTER:                  -7.878
REMARK INTRA:                  -0.289
REMARK UNBOUND:                -0.294
REMARK SMILES C#CC[NH2+][C@@H]1CCc2ccccc21
REMARK SMILES IDX 1 1 2 2 3 3 4 4 5 7 6 8 13 9 7 10 12 11 8 12 11 13 9 14
REMARK SMILES IDX 10 15
REMARK H PARENT 4 5 4 6
ROOT
ATOM      1  C   UNL     1      54.901 148.088  19.560  1.00  0.00     0.010 C 
ATOM      2  C   UNL     1      55.281 148.070  20.700  1.00  0.00    -0.047 C 
ATOM      3  C   UNL     1      55.744 148.049  22.093  1.00  0.00     0.352 C 
ENDROOT
BRANCH   3   4
ATOM      4  N   UNL     1      56.227 149.372  22.462  1.00  0.00    -0.330 N 
ATOM      5  H   UNL     1      57.107 149.545  21.979  1.00  0.00     0.347 HD
ATOM      6  H   UNL     1      56.347 149.387  23.475  1.00  0.00     0.347 HD
BRANCH   4   7
ATOM      7  C   UNL     1      55.284 150.426  22.110  1.00  0.00     0.214 C 
ATOM      8  C   UNL     1      55.930 151.651  21.423  1.00  0.00     0.075 C 
ATOM      9  C   UNL     1      54.672 151.089  23.318  1.00  0.00     0.012 A 
ATOM     10  C   UNL     1      55.033 152.853  21.752  1.00  0.00     0.042 C 
ATOM     11  C   UNL     1      54.225 150.504  24.493  1.00  0.00     0.010 A 
ATOM     12  C   UNL     1      54.525 152.467  23.105  1.00  0.00    -0.039 A 
ATOM     13  C   UNL     1      53.642 151.319  25.466  1.00  0.00     0.001 A 
ATOM     14  C   UNL     1      53.936 153.282  24.057  1.00  0.00     0.004 A 
ATOM     15  C   UNL     1      53.499 152.699  25.248  1.00  0.00     0.000 A 
ENDBRANCH   4   7
ENDBRANCH   3   4
TORSDOF 2
ENDMDL
