MODEL 1
REMARK VINA RESULT:    -9.655      0.000      0.000
REMARK INTER + INTRA:         -14.313
REMARK INTER:                 -13.607
REMARK INTRA:                  -0.706
REMARK UNBOUND:                -0.706
REMARK SMILES C[C@H]([NH2+]Cc1ccc(OCc2cccc(F)c2)cc1)C(N)=O
REMARK SMILES IDX 5 1 6 2 7 3 8 4 18 5 19 6 4 7 3 8 2 11 1 12 20 13 21 14
REMARK SMILES IDX 22 15 9 18 10 19 11 20 12 21 17 22 13 23 15 24 14 25 16 26
REMARK H PARENT 3 9 3 10 21 16 21 17
ROOT
ATOM      1  C   UNL     1      52.252 156.299  28.341  1.00  0.00     0.006 A 
ATOM      2  C   UNL     1      52.968 156.851  27.269  1.00  0.00     0.013 A 
ATOM      3  C   UNL     1      53.147 156.134  26.080  1.00  0.00     0.047 A 
ATOM      4  C   UNL     1      52.615 154.851  25.950  1.00  0.00     0.119 A 
ATOM      5  C   UNL     1      51.909 154.295  27.018  1.00  0.00     0.047 A 
ATOM      6  C   UNL     1      51.729 155.008  28.206  1.00  0.00     0.013 A 
ENDROOT
BRANCH   1   7
ATOM      7  C   UNL     1      52.079 157.071  29.626  1.00  0.00     0.297 C 
BRANCH   7   8
ATOM      8  N   UNL     1      52.416 158.484  29.419  1.00  0.00    -0.333 N 
ATOM      9  H   UNL     1      53.203 158.731  30.018  1.00  0.00     0.347 HD
ATOM     10  H   UNL     1      52.658 158.619  28.437  1.00  0.00     0.347 HD
BRANCH   8  11
ATOM     11  C   UNL     1      51.263 159.362  29.745  1.00  0.00     0.269 C 
ATOM     12  C   UNL     1      50.155 158.520  30.374  1.00  0.00     0.086 C 
BRANCH  11  13
ATOM     13  C   UNL     1      51.695 160.453  30.740  1.00  0.00     0.275 C 
ATOM     14  N   UNL     1      52.965 160.928  30.551  1.00  0.00    -0.365 N 
ATOM     15  O   UNL     1      50.988 160.859  31.655  1.00  0.00    -0.268 OA
ATOM     16  H   UNL     1      53.514 160.586  29.809  1.00  0.00     0.159 HD
ATOM     17  H   UNL     1      53.330 161.612  31.158  1.00  0.00     0.159 HD
ENDBRANCH  11  13
ENDBRANCH   8  11
ENDBRANCH   7   8
ENDBRANCH   1   7
BRANCH   4  18
ATOM     18  O   UNL     1      52.715 154.043  24.852  1.00  0.00    -0.489 OA
BRANCH  18  19
ATOM     19  C   UNL     1      53.954 154.055  24.148  1.00  0.00     0.265 C 
BRANCH  19  20
ATOM     20  C   UNL     1      54.278 152.635  23.756  1.00  0.00    -0.008 A 
ATOM     21  C   UNL     1      54.849 152.355  22.503  1.00  0.00     0.007 A 
ATOM     22  C   UNL     1      54.053 151.578  24.647  1.00  0.00     0.046 A 
ATOM     23  C   UNL     1      55.166 151.044  22.141  1.00  0.00     0.003 A 
ATOM     24  C   UNL     1      54.372 150.276  24.276  1.00  0.00     0.123 A 
ATOM     25  C   UNL     1      54.923 149.999  23.030  1.00  0.00     0.039 A 
ATOM     26  F   UNL     1      54.147 149.272  25.134  1.00  0.00    -0.207 F 
ENDBRANCH  19  20
ENDBRANCH  18  19
ENDBRANCH   4  18
TORSDOF 7
ENDMDL
MODEL 2
REMARK VINA RESULT:    -9.649      0.922      1.719
REMARK INTER + INTRA:         -14.304
REMARK INTER:                 -13.584
REMARK INTRA:                  -0.720
REMARK UNBOUND:                -0.706
REMARK SMILES C[C@H]([NH2+]Cc1ccc(OCc2cccc(F)c2)cc1)C(N)=O
REMARK SMILES IDX 5 1 6 2 7 3 8 4 18 5 19 6 4 7 3 8 2 11 1 12 20 13 21 14
REMARK SMILES IDX 22 15 9 18 10 19 11 20 12 21 17 22 13 23 15 24 14 25 16 26
REMARK H PARENT 3 9 3 10 21 16 21 17
ROOT
ATOM      1  C   UNL     1      52.196 156.275  28.410  1.00  0.00     0.006 A 
ATOM      2  C   UNL     1      51.618 155.001  28.316  1.00  0.00     0.013 A 
ATOM      3  C   UNL     1      51.742 154.241  27.146  1.00  0.00     0.047 A 
ATOM      4  C   UNL     1      52.442 154.751  26.052  1.00  0.00     0.119 A 
ATOM      5  C   UNL     1      53.011 156.023  26.139  1.00  0.00     0.047 A 
ATOM      6  C   UNL     1      52.888 156.783  27.305  1.00  0.00     0.013 A 
ENDROOT
BRANCH   1   7
ATOM      7  C   UNL     1      52.042 157.095  29.668  1.00  0.00     0.297 C 
BRANCH   7   8
ATOM      8  N   UNL     1      52.383 158.498  29.404  1.00  0.00    -0.333 N 
ATOM      9  H   UNL     1      53.205 158.749  29.953  1.00  0.00     0.347 HD
ATOM     10  H   UNL     1      52.572 158.604  28.408  1.00  0.00     0.347 HD
BRANCH   8  11
ATOM     11  C   UNL     1      51.261 159.398  29.770  1.00  0.00     0.269 C 
ATOM     12  C   UNL     1      50.126 158.569  30.365  1.00  0.00     0.086 C 
BRANCH  11  13
ATOM     13  C   UNL     1      51.730 160.432  30.808  1.00  0.00     0.275 C 
ATOM     14  N   UNL     1      52.954 160.988  30.550  1.00  0.00    -0.365 N 
ATOM     15  O   UNL     1      51.091 160.728  31.811  1.00  0.00    -0.268 OA
ATOM     16  H   UNL     1      53.449 160.734  29.737  1.00  0.00     0.159 HD
ATOM     17  H   UNL     1      53.340 161.642  31.177  1.00  0.00     0.159 HD
ENDBRANCH  11  13
ENDBRANCH   8  11
ENDBRANCH   7   8
ENDBRANCH   1   7
BRANCH   4  18
ATOM     18  O   UNL     1      52.638 154.120  24.854  1.00  0.00    -0.489 OA
BRANCH  18  19
ATOM     19  C   UNL     1      53.984 153.988  24.404  1.00  0.00     0.265 C 
BRANCH  19  20
ATOM     20  C   UNL     1      54.232 152.529  24.109  1.00  0.00    -0.008 A 
ATOM     21  C   UNL     1      53.932 151.548  25.068  1.00  0.00     0.007 A 
ATOM     22  C   UNL     1      54.728 152.127  22.862  1.00  0.00     0.046 A 
ATOM     23  C   UNL     1      54.144 150.195  24.793  1.00  0.00     0.003 A 
ATOM     24  C   UNL     1      54.936 150.777  22.599  1.00  0.00     0.123 A 
ATOM     25  C   UNL     1      54.652 149.808  23.555  1.00  0.00     0.039 A 
ATOM     26  F   UNL     1      55.416 150.404  21.406  1.00  0.00    -0.207 F 
ENDBRANCH  19  20
ENDBRANCH  18  19
ENDBRANCH   4  18
TORSDOF 7
ENDMDL
MODEL 3
REMARK VINA RESULT:    -9.624      0.143      1.036
REMARK INTER + INTRA:         -14.268
REMARK INTER:                 -13.552
REMARK INTRA:                  -0.716
REMARK UNBOUND:                -0.706
REMARK SMILES C[C@H]([NH2+]Cc1ccc(OCc2cccc(F)c2)cc1)C(N)=O
REMARK SMILES IDX 5 1 6 2 7 3 8 4 18 5 19 6 4 7 3 8 2 11 1 12 20 13 21 14
REMARK SMILES IDX 22 15 9 18 10 19 11 20 12 21 17 22 13 23 15 24 14 25 16 26
REMARK H PARENT 3 9 3 10 21 16 21 17
ROOT
ATOM      1  C   UNL     1      52.184 156.196  28.402  1.00  0.00     0.006 A 
ATOM      2  C   UNL     1      51.681 154.888  28.333  1.00  0.00     0.013 A 
ATOM      3  C   UNL     1      51.826 154.125  27.169  1.00  0.00     0.047 A 
ATOM      4  C   UNL     1      52.472 154.662  26.055  1.00  0.00     0.119 A 
ATOM      5  C   UNL     1      52.966 155.966  26.117  1.00  0.00     0.047 A 
ATOM      6  C   UNL     1      52.823 156.731  27.278  1.00  0.00     0.013 A 
ENDROOT
BRANCH   1   7
ATOM      7  C   UNL     1      52.007 157.019  29.655  1.00  0.00     0.297 C 
BRANCH   7   8
ATOM      8  N   UNL     1      52.381 158.415  29.401  1.00  0.00    -0.333 N 
ATOM      9  H   UNL     1      53.182 158.658  29.984  1.00  0.00     0.347 HD
ATOM     10  H   UNL     1      52.615 158.514  28.413  1.00  0.00     0.347 HD
BRANCH   8  11
ATOM     11  C   UNL     1      51.257 159.334  29.714  1.00  0.00     0.269 C 
ATOM     12  C   UNL     1      50.121 158.538  30.351  1.00  0.00     0.086 C 
BRANCH  11  13
ATOM     13  C   UNL     1      51.723 160.423  30.696  1.00  0.00     0.275 C 
ATOM     14  N   UNL     1      53.006 160.858  30.501  1.00  0.00    -0.365 N 
ATOM     15  O   UNL     1      51.030 160.860  31.607  1.00  0.00    -0.268 OA
ATOM     16  H   UNL     1      53.544 160.491  29.762  1.00  0.00     0.159 HD
ATOM     17  H   UNL     1      53.392 161.537  31.100  1.00  0.00     0.159 HD
ENDBRANCH  11  13
ENDBRANCH   8  11
ENDBRANCH   7   8
ENDBRANCH   1   7
BRANCH   4  18
ATOM     18  O   UNL     1      52.681 154.031  24.860  1.00  0.00    -0.489 OA
BRANCH  18  19
ATOM     19  C   UNL     1      54.015 154.012  24.362  1.00  0.00     0.265 C 
BRANCH  19  20
ATOM     20  C   UNL     1      54.303 152.618  23.860  1.00  0.00    -0.008 A 
ATOM     21  C   UNL     1      54.824 152.419  22.571  1.00  0.00     0.007 A 
ATOM     22  C   UNL     1      54.094 151.505  24.685  1.00  0.00     0.046 A 
ATOM     23  C   UNL     1      55.108 151.132  22.108  1.00  0.00     0.003 A 
ATOM     24  C   UNL     1      54.380 150.228  24.213  1.00  0.00     0.123 A 
ATOM     25  C   UNL     1      54.882 150.031  22.932  1.00  0.00     0.039 A 
ATOM     26  F   UNL     1      54.170 149.170  25.008  1.00  0.00    -0.207 F 
ENDBRANCH  19  20
ENDBRANCH  18  19
ENDBRANCH   4  18
TORSDOF 7
ENDMDL
MODEL 4
REMARK VINA RESULT:    -9.497      1.619      2.437
REMARK INTER + INTRA:         -14.089
REMARK INTER:                 -13.520
REMARK INTRA:                  -0.569
REMARK UNBOUND:                -0.706
REMARK SMILES C[C@H]([NH2+]Cc1ccc(OCc2cccc(F)c2)cc1)C(N)=O
REMARK SMILES IDX 5 1 6 2 7 3 8 4 18 5 19 6 4 7 3 8 2 11 1 12 20 13 21 14
REMARK SMILES IDX 22 15 9 18 10 19 11 20 12 21 17 22 13 23 15 24 14 25 16 26
REMARK H PARENT 3 9 3 10 21 16 21 17
ROOT
ATOM      1  C   UNL     1      51.664 157.295  29.276  1.00  0.00     0.006 A 
ATOM      2  C   UNL     1      51.126 156.035  29.575  1.00  0.00     0.013 A 
ATOM      3  C   UNL     1      51.480 154.907  28.824  1.00  0.00     0.047 A 
ATOM      4  C   UNL     1      52.373 155.027  27.759  1.00  0.00     0.119 A 
ATOM      5  C   UNL     1      52.904 156.282  27.453  1.00  0.00     0.047 A 
ATOM      6  C   UNL     1      52.553 157.409  28.201  1.00  0.00     0.013 A 
ENDROOT
BRANCH   1   7
ATOM      7  C   UNL     1      51.264 158.509  30.079  1.00  0.00     0.297 C 
BRANCH   7   8
ATOM      8  N   UNL     1      52.350 159.495  30.083  1.00  0.00    -0.333 N 
ATOM      9  H   UNL     1      53.059 159.207  30.758  1.00  0.00     0.347 HD
ATOM     10  H   UNL     1      52.748 159.544  29.145  1.00  0.00     0.347 HD
BRANCH   8  11
ATOM     11  C   UNL     1      51.847 160.842  30.454  1.00  0.00     0.269 C 
ATOM     12  C   UNL     1      50.926 160.718  31.665  1.00  0.00     0.086 C 
BRANCH  11  13
ATOM     13  C   UNL     1      53.024 161.767  30.806  1.00  0.00     0.275 C 
ATOM     14  N   UNL     1      53.565 161.558  32.046  1.00  0.00    -0.365 N 
ATOM     15  O   UNL     1      53.443 162.649  30.065  1.00  0.00    -0.268 OA
ATOM     16  H   UNL     1      53.211 160.844  32.624  1.00  0.00     0.159 HD
ATOM     17  H   UNL     1      54.307 162.123  32.361  1.00  0.00     0.159 HD
ENDBRANCH  11  13
ENDBRANCH   8  11
ENDBRANCH   7   8
ENDBRANCH   1   7
BRANCH   4  18
ATOM     18  O   UNL     1      52.802 154.015  26.947  1.00  0.00    -0.489 OA
BRANCH  18  19
ATOM     19  C   UNL     1      53.052 154.340  25.582  1.00  0.00     0.265 C 
BRANCH  19  20
ATOM     20  C   UNL     1      53.574 153.101  24.898  1.00  0.00    -0.008 A 
ATOM     21  C   UNL     1      53.520 151.854  25.545  1.00  0.00     0.007 A 
ATOM     22  C   UNL     1      54.083 153.164  23.595  1.00  0.00     0.046 A 
ATOM     23  C   UNL     1      53.987 150.701  24.910  1.00  0.00     0.003 A 
ATOM     24  C   UNL     1      54.546 152.009  22.972  1.00  0.00     0.123 A 
ATOM     25  C   UNL     1      54.505 150.780  23.619  1.00  0.00     0.039 A 
ATOM     26  F   UNL     1      55.037 152.083  21.728  1.00  0.00    -0.207 F 
ENDBRANCH  19  20
ENDBRANCH  18  19
ENDBRANCH   4  18
TORSDOF 7
ENDMDL
MODEL 5
REMARK VINA RESULT:    -9.312      4.113      9.389
REMARK INTER + INTRA:         -13.829
REMARK INTER:                 -13.216
REMARK INTRA:                  -0.614
REMARK UNBOUND:                -0.706
REMARK SMILES C[C@H]([NH2+]Cc1ccc(OCc2cccc(F)c2)cc1)C(N)=O
REMARK SMILES IDX 5 1 6 2 7 3 8 4 18 5 19 6 4 7 3 8 2 11 1 12 20 13 21 14
REMARK SMILES IDX 22 15 9 18 10 19 11 20 12 21 17 22 13 23 15 24 14 25 16 26
REMARK H PARENT 3 9 3 10 21 16 21 17
ROOT
ATOM      1  C   UNL     1      52.971 154.821  26.203  1.00  0.00     0.006 A 
ATOM      2  C   UNL     1      52.249 154.171  27.215  1.00  0.00     0.013 A 
ATOM      3  C   UNL     1      51.811 154.870  28.346  1.00  0.00     0.047 A 
ATOM      4  C   UNL     1      52.096 156.229  28.483  1.00  0.00     0.119 A 
ATOM      5  C   UNL     1      52.822 156.877  27.482  1.00  0.00     0.047 A 
ATOM      6  C   UNL     1      53.260 156.182  26.351  1.00  0.00     0.013 A 
ENDROOT
BRANCH   1   7
ATOM      7  C   UNL     1      53.455 154.056  24.995  1.00  0.00     0.297 C 
BRANCH   7   8
ATOM      8  N   UNL     1      54.907 153.859  25.068  1.00  0.00    -0.333 N 
ATOM      9  H   UNL     1      55.340 154.257  24.235  1.00  0.00     0.347 HD
ATOM     10  H   UNL     1      55.255 154.321  25.908  1.00  0.00     0.347 HD
BRANCH   8  11
ATOM     11  C   UNL     1      55.247 152.416  25.148  1.00  0.00     0.269 C 
ATOM     12  C   UNL     1      54.561 151.675  24.002  1.00  0.00     0.086 C 
BRANCH  11  13
ATOM     13  C   UNL     1      56.769 152.224  25.034  1.00  0.00     0.275 C 
ATOM     14  N   UNL     1      57.472 152.554  26.161  1.00  0.00    -0.365 N 
ATOM     15  O   UNL     1      57.332 151.838  24.017  1.00  0.00    -0.268 OA
ATOM     16  H   UNL     1      56.997 152.862  26.967  1.00  0.00     0.159 HD
ATOM     17  H   UNL     1      58.455 152.483  26.166  1.00  0.00     0.159 HD
ENDBRANCH  11  13
ENDBRANCH   8  11
ENDBRANCH   7   8
ENDBRANCH   1   7
BRANCH   4  18
ATOM     18  O   UNL     1      51.732 157.029  29.530  1.00  0.00    -0.489 OA
BRANCH  18  19
ATOM     19  C   UNL     1      51.971 158.427  29.392  1.00  0.00     0.265 C 
BRANCH  19  20
ATOM     20  C   UNL     1      51.014 159.152  30.306  1.00  0.00    -0.008 A 
ATOM     21  C   UNL     1      51.403 160.343  30.942  1.00  0.00     0.007 A 
ATOM     22  C   UNL     1      49.712 158.675  30.502  1.00  0.00     0.046 A 
ATOM     23  C   UNL     1      50.516 161.028  31.776  1.00  0.00     0.003 A 
ATOM     24  C   UNL     1      48.837 159.365  31.335  1.00  0.00     0.123 A 
ATOM     25  C   UNL     1      49.229 160.535  31.976  1.00  0.00     0.039 A 
ATOM     26  F   UNL     1      47.597 158.895  31.521  1.00  0.00    -0.207 F 
ENDBRANCH  19  20
ENDBRANCH  18  19
ENDBRANCH   4  18
TORSDOF 7
ENDMDL
MODEL 6
REMARK VINA RESULT:    -9.302      4.412      9.503
REMARK INTER + INTRA:         -13.814
REMARK INTER:                 -13.291
REMARK INTRA:                  -0.523
REMARK UNBOUND:                -0.706
REMARK SMILES C[C@H]([NH2+]Cc1ccc(OCc2cccc(F)c2)cc1)C(N)=O
REMARK SMILES IDX 5 1 6 2 7 3 8 4 18 5 19 6 4 7 3 8 2 11 1 12 20 13 21 14
REMARK SMILES IDX 22 15 9 18 10 19 11 20 12 21 17 22 13 23 15 24 14 25 16 26
REMARK H PARENT 3 9 3 10 21 16 21 17
ROOT
ATOM      1  C   UNL     1      52.389 154.721  27.369  1.00  0.00     0.006 A 
ATOM      2  C   UNL     1      52.887 156.002  27.094  1.00  0.00     0.013 A 
ATOM      3  C   UNL     1      52.637 157.071  27.963  1.00  0.00     0.047 A 
ATOM      4  C   UNL     1      51.879 156.872  29.118  1.00  0.00     0.119 A 
ATOM      5  C   UNL     1      51.374 155.599  29.390  1.00  0.00     0.047 A 
ATOM      6  C   UNL     1      51.622 154.530  28.524  1.00  0.00     0.013 A 
ENDROOT
BRANCH   1   7
ATOM      7  C   UNL     1      52.648 153.578  26.418  1.00  0.00     0.297 C 
BRANCH   7   8
ATOM      8  N   UNL     1      53.875 152.869  26.798  1.00  0.00    -0.333 N 
ATOM      9  H   UNL     1      54.507 153.521  27.262  1.00  0.00     0.347 HD
ATOM     10  H   UNL     1      53.626 152.104  27.425  1.00  0.00     0.347 HD
BRANCH   8  11
ATOM     11  C   UNL     1      54.554 152.300  25.606  1.00  0.00     0.269 C 
ATOM     12  C   UNL     1      53.759 151.099  25.101  1.00  0.00     0.086 C 
BRANCH  11  13
ATOM     13  C   UNL     1      54.636 153.357  24.491  1.00  0.00     0.275 C 
ATOM     14  N   UNL     1      55.353 154.476  24.815  1.00  0.00    -0.365 N 
ATOM     15  O   UNL     1      54.086 153.241  23.402  1.00  0.00    -0.268 OA
ATOM     16  H   UNL     1      55.786 154.546  25.697  1.00  0.00     0.159 HD
ATOM     17  H   UNL     1      55.436 155.213  24.167  1.00  0.00     0.159 HD
ENDBRANCH  11  13
ENDBRANCH   8  11
ENDBRANCH   7   8
ENDBRANCH   1   7
BRANCH   4  18
ATOM     18  O   UNL     1      51.559 157.822  30.047  1.00  0.00    -0.489 OA
BRANCH  18  19
ATOM     19  C   UNL     1      51.201 159.112  29.560  1.00  0.00     0.265 C 
BRANCH  19  20
ATOM     20  C   UNL     1      50.020 159.599  30.362  1.00  0.00    -0.008 A 
ATOM     21  C   UNL     1      49.017 158.704  30.769  1.00  0.00     0.007 A 
ATOM     22  C   UNL     1      49.924 160.942  30.749  1.00  0.00     0.046 A 
ATOM     23  C   UNL     1      47.930 159.147  31.526  1.00  0.00     0.003 A 
ATOM     24  C   UNL     1      48.837 161.373  31.503  1.00  0.00     0.123 A 
ATOM     25  C   UNL     1      47.838 160.487  31.892  1.00  0.00     0.039 A 
ATOM     26  F   UNL     1      48.753 162.660  31.861  1.00  0.00    -0.207 F 
ENDBRANCH  19  20
ENDBRANCH  18  19
ENDBRANCH   4  18
TORSDOF 7
ENDMDL
MODEL 7
REMARK VINA RESULT:    -9.302      5.058      9.453
REMARK INTER + INTRA:         -13.814
REMARK INTER:                 -13.024
REMARK INTRA:                  -0.790
REMARK UNBOUND:                -0.706
REMARK SMILES C[C@H]([NH2+]Cc1ccc(OCc2cccc(F)c2)cc1)C(N)=O
REMARK SMILES IDX 5 1 6 2 7 3 8 4 18 5 19 6 4 7 3 8 2 11 1 12 20 13 21 14
REMARK SMILES IDX 22 15 9 18 10 19 11 20 12 21 17 22 13 23 15 24 14 25 16 26
REMARK H PARENT 3 9 3 10 21 16 21 17
ROOT
ATOM      1  C   UNL     1      54.627 150.469  23.600  1.00  0.00     0.006 A 
ATOM      2  C   UNL     1      54.853 151.648  22.877  1.00  0.00     0.013 A 
ATOM      3  C   UNL     1      54.563 152.899  23.435  1.00  0.00     0.047 A 
ATOM      4  C   UNL     1      54.036 152.985  24.724  1.00  0.00     0.119 A 
ATOM      5  C   UNL     1      53.801 151.812  25.443  1.00  0.00     0.047 A 
ATOM      6  C   UNL     1      54.089 150.562  24.889  1.00  0.00     0.013 A 
ENDROOT
BRANCH   1   7
ATOM      7  C   UNL     1      54.925 149.123  22.984  1.00  0.00     0.297 C 
BRANCH   7   8
ATOM      8  N   UNL     1      55.953 148.425  23.764  1.00  0.00    -0.333 N 
ATOM      9  H   UNL     1      56.180 148.979  24.589  1.00  0.00     0.347 HD
ATOM     10  H   UNL     1      55.590 147.511  24.035  1.00  0.00     0.347 HD
BRANCH   8  11
ATOM     11  C   UNL     1      57.186 148.223  22.961  1.00  0.00     0.269 C 
ATOM     12  C   UNL     1      56.840 148.320  21.478  1.00  0.00     0.086 C 
BRANCH  11  13
ATOM     13  C   UNL     1      58.226 149.302  23.310  1.00  0.00     0.275 C 
ATOM     14  N   UNL     1      58.960 149.046  24.436  1.00  0.00    -0.365 N 
ATOM     15  O   UNL     1      58.381 150.332  22.664  1.00  0.00    -0.268 OA
ATOM     16  H   UNL     1      58.817 148.212  24.939  1.00  0.00     0.159 HD
ATOM     17  H   UNL     1      59.632 149.697  24.745  1.00  0.00     0.159 HD
ENDBRANCH  11  13
ENDBRANCH   8  11
ENDBRANCH   7   8
ENDBRANCH   1   7
BRANCH   4  18
ATOM     18  O   UNL     1      53.708 154.135  25.386  1.00  0.00    -0.489 OA
BRANCH  18  19
ATOM     19  C   UNL     1      52.345 154.296  25.770  1.00  0.00     0.265 C 
BRANCH  19  20
ATOM     20  C   UNL     1      52.309 155.183  26.990  1.00  0.00    -0.008 A 
ATOM     21  C   UNL     1      52.873 156.469  26.952  1.00  0.00     0.007 A 
ATOM     22  C   UNL     1      51.677 154.757  28.166  1.00  0.00     0.046 A 
ATOM     23  C   UNL     1      52.827 157.301  28.073  1.00  0.00     0.003 A 
ATOM     24  C   UNL     1      51.638 155.594  29.276  1.00  0.00     0.123 A 
ATOM     25  C   UNL     1      52.210 156.861  29.241  1.00  0.00     0.039 A 
ATOM     26  F   UNL     1      51.038 155.173  30.397  1.00  0.00    -0.207 F 
ENDBRANCH  19  20
ENDBRANCH  18  19
ENDBRANCH   4  18
TORSDOF 7
ENDMDL
MODEL 8
REMARK VINA RESULT:    -9.241      4.387      9.584
REMARK INTER + INTRA:         -13.729
REMARK INTER:                 -13.112
REMARK INTRA:                  -0.618
REMARK UNBOUND:                -0.706
REMARK SMILES C[C@H]([NH2+]Cc1ccc(OCc2cccc(F)c2)cc1)C(N)=O
REMARK SMILES IDX 5 1 6 2 7 3 8 4 18 5 19 6 4 7 3 8 2 11 1 12 20 13 21 14
REMARK SMILES IDX 22 15 9 18 10 19 11 20 12 21 17 22 13 23 15 24 14 25 16 26
REMARK H PARENT 3 9 3 10 21 16 21 17
ROOT
ATOM      1  C   UNL     1      52.681 154.899  26.489  1.00  0.00     0.006 A 
ATOM      2  C   UNL     1      51.923 154.278  27.492  1.00  0.00     0.013 A 
ATOM      3  C   UNL     1      51.532 154.983  28.636  1.00  0.00     0.047 A 
ATOM      4  C   UNL     1      51.899 156.320  28.794  1.00  0.00     0.119 A 
ATOM      5  C   UNL     1      52.661 156.939  27.802  1.00  0.00     0.047 A 
ATOM      6  C   UNL     1      53.053 156.238  26.659  1.00  0.00     0.013 A 
ENDROOT
BRANCH   1   7
ATOM      7  C   UNL     1      53.114 154.127  25.267  1.00  0.00     0.297 C 
BRANCH   7   8
ATOM      8  N   UNL     1      54.570 153.945  25.272  1.00  0.00    -0.333 N 
ATOM      9  H   UNL     1      54.973 154.460  24.488  1.00  0.00     0.347 HD
ATOM     10  H   UNL     1      54.938 154.295  26.156  1.00  0.00     0.347 HD
BRANCH   8  11
ATOM     11  C   UNL     1      54.930 152.510  25.146  1.00  0.00     0.269 C 
ATOM     12  C   UNL     1      54.120 151.888  24.011  1.00  0.00     0.086 C 
BRANCH  11  13
ATOM     13  C   UNL     1      56.430 152.367  24.834  1.00  0.00     0.275 C 
ATOM     14  N   UNL     1      57.252 152.451  25.925  1.00  0.00    -0.365 N 
ATOM     15  O   UNL     1      56.879 152.219  23.703  1.00  0.00    -0.268 OA
ATOM     16  H   UNL     1      56.867 152.570  26.824  1.00  0.00     0.159 HD
ATOM     17  H   UNL     1      58.228 152.393  25.812  1.00  0.00     0.159 HD
ENDBRANCH  11  13
ENDBRANCH   8  11
ENDBRANCH   7   8
ENDBRANCH   1   7
BRANCH   4  18
ATOM     18  O   UNL     1      51.587 157.123  29.856  1.00  0.00    -0.489 OA
BRANCH  18  19
ATOM     19  C   UNL     1      51.688 158.530  29.656  1.00  0.00     0.265 C 
BRANCH  19  20
ATOM     20  C   UNL     1      50.591 159.191  30.454  1.00  0.00    -0.008 A 
ATOM     21  C   UNL     1      49.314 158.611  30.525  1.00  0.00     0.007 A 
ATOM     22  C   UNL     1      50.838 160.371  31.168  1.00  0.00     0.046 A 
ATOM     23  C   UNL     1      48.300 159.210  31.276  1.00  0.00     0.003 A 
ATOM     24  C   UNL     1      49.821 160.959  31.912  1.00  0.00     0.123 A 
ATOM     25  C   UNL     1      48.553 160.391  31.970  1.00  0.00     0.039 A 
ATOM     26  F   UNL     1      50.066 162.090  32.585  1.00  0.00    -0.207 F 
ENDBRANCH  19  20
ENDBRANCH  18  19
ENDBRANCH   4  18
TORSDOF 7
ENDMDL
MODEL 9
REMARK VINA RESULT:    -8.971      4.513      9.512
REMARK INTER + INTRA:         -13.348
REMARK INTER:                 -12.727
REMARK INTRA:                  -0.622
REMARK UNBOUND:                -0.706
REMARK SMILES C[C@H]([NH2+]Cc1ccc(OCc2cccc(F)c2)cc1)C(N)=O
REMARK SMILES IDX 5 1 6 2 7 3 8 4 18 5 19 6 4 7 3 8 2 11 1 12 20 13 21 14
REMARK SMILES IDX 22 15 9 18 10 19 11 20 12 21 17 22 13 23 15 24 14 25 16 26
REMARK H PARENT 3 9 3 10 21 16 21 17
ROOT
ATOM      1  C   UNL     1      53.519 154.263  25.905  1.00  0.00     0.006 A 
ATOM      2  C   UNL     1      53.132 153.542  27.044  1.00  0.00     0.013 A 
ATOM      3  C   UNL     1      52.533 154.187  28.133  1.00  0.00     0.047 A 
ATOM      4  C   UNL     1      52.319 155.565  28.098  1.00  0.00     0.119 A 
ATOM      5  C   UNL     1      52.711 156.287  26.970  1.00  0.00     0.047 A 
ATOM      6  C   UNL     1      53.309 155.647  25.882  1.00  0.00     0.013 A 
ENDROOT
BRANCH   1   7
ATOM      7  C   UNL     1      54.181 153.563  24.743  1.00  0.00     0.297 C 
BRANCH   7   8
ATOM      8  N   UNL     1      55.268 152.702  25.222  1.00  0.00    -0.333 N 
ATOM      9  H   UNL     1      56.088 153.277  25.417  1.00  0.00     0.347 HD
ATOM     10  H   UNL     1      54.956 152.226  26.068  1.00  0.00     0.347 HD
BRANCH   8  11
ATOM     11  C   UNL     1      55.625 151.678  24.207  1.00  0.00     0.269 C 
ATOM     12  C   UNL     1      54.940 152.021  22.887  1.00  0.00     0.086 C 
BRANCH  11  13
ATOM     13  C   UNL     1      57.148 151.653  23.995  1.00  0.00     0.275 C 
ATOM     14  N   UNL     1      57.882 151.471  25.136  1.00  0.00    -0.365 N 
ATOM     15  O   UNL     1      57.686 151.811  22.906  1.00  0.00    -0.268 OA
ATOM     16  H   UNL     1      57.426 151.346  26.000  1.00  0.00     0.159 HD
ATOM     17  H   UNL     1      58.866 151.465  25.093  1.00  0.00     0.159 HD
ENDBRANCH  11  13
ENDBRANCH   8  11
ENDBRANCH   7   8
ENDBRANCH   1   7
BRANCH   4  18
ATOM     18  O   UNL     1      51.748 156.318  29.086  1.00  0.00    -0.489 OA
BRANCH  18  19
ATOM     19  C   UNL     1      52.243 157.643  29.259  1.00  0.00     0.265 C 
BRANCH  19  20
ATOM     20  C   UNL     1      51.173 158.451  29.951  1.00  0.00    -0.008 A 
ATOM     21  C   UNL     1      49.889 157.914  30.146  1.00  0.00     0.007 A 
ATOM     22  C   UNL     1      51.452 159.731  30.447  1.00  0.00     0.046 A 
ATOM     23  C   UNL     1      48.900 158.651  30.801  1.00  0.00     0.003 A 
ATOM     24  C   UNL     1      50.459 160.457  31.097  1.00  0.00     0.123 A 
ATOM     25  C   UNL     1      49.185 159.929  31.276  1.00  0.00     0.039 A 
ATOM     26  F   UNL     1      50.735 161.682  31.560  1.00  0.00    -0.207 F 
ENDBRANCH  19  20
ENDBRANCH  18  19
ENDBRANCH   4  18
TORSDOF 7
ENDMDL
