MODEL 1
REMARK VINA RESULT:    -7.364      0.000      0.000
REMARK INTER + INTRA:          -9.511
REMARK INTER:                  -9.086
REMARK INTRA:                  -0.425
REMARK UNBOUND:                -0.425
REMARK SMILES C#CC[N@@H+](C)[C@H](C)Cc1ccccc1
REMARK SMILES IDX 4 1 5 2 3 4 2 5 1 6 6 7 7 8 8 9 9 10 10 11 14 12 11 13 13 14
REMARK SMILES IDX 12 15
REMARK H PARENT 4 3
ROOT
ATOM      1  N   UNL     1      53.468 154.850  26.404  1.00  0.00    -0.325 N 
ATOM      2  C   UNL     1      52.296 154.020  26.696  1.00  0.00     0.333 C 
ATOM      3  H   UNL     1      54.076 154.773  27.219  1.00  0.00     0.348 HD
ENDROOT
BRANCH   1   4
ATOM      4  C   UNL     1      53.089 156.264  26.239  1.00  0.00     0.353 C 
ATOM      5  C   UNL     1      52.842 156.915  27.537  1.00  0.00    -0.047 C 
ATOM      6  C   UNL     1      52.644 157.451  28.595  1.00  0.00     0.010 C 
ENDBRANCH   1   4
BRANCH   1   7
ATOM      7  C   UNL     1      54.283 154.362  25.261  1.00  0.00     0.185 C 
ATOM      8  C   UNL     1      55.019 155.472  24.492  1.00  0.00     0.075 C 
BRANCH   7   9
ATOM      9  C   UNL     1      53.415 153.495  24.308  1.00  0.00     0.100 C 
BRANCH   9  10
ATOM     10  C   UNL     1      54.006 152.132  24.016  1.00  0.00    -0.042 A 
ATOM     11  C   UNL     1      53.854 151.077  24.926  1.00  0.00     0.004 A 
ATOM     12  C   UNL     1      54.711 151.906  22.826  1.00  0.00     0.004 A 
ATOM     13  C   UNL     1      54.394 149.821  24.648  1.00  0.00     0.000 A 
ATOM     14  C   UNL     1      55.250 150.649  22.549  1.00  0.00     0.000 A 
ATOM     15  C   UNL     1      55.090 149.607  23.460  1.00  0.00     0.000 A 
ENDBRANCH   9  10
ENDBRANCH   7   9
ENDBRANCH   1   7
TORSDOF 4
ENDMDL
MODEL 2
REMARK VINA RESULT:    -7.344      0.164      1.300
REMARK INTER + INTRA:          -9.487
REMARK INTER:                  -9.071
REMARK INTRA:                  -0.416
REMARK UNBOUND:                -0.425
REMARK SMILES C#CC[N@@H+](C)[C@H](C)Cc1ccccc1
REMARK SMILES IDX 4 1 5 2 3 4 2 5 1 6 6 7 7 8 8 9 9 10 10 11 14 12 11 13 13 14
REMARK SMILES IDX 12 15
REMARK H PARENT 4 3
ROOT
ATOM      1  N   UNL     1      53.492 154.901  26.446  1.00  0.00    -0.325 N 
ATOM      2  C   UNL     1      52.384 153.999  26.767  1.00  0.00     0.333 C 
ATOM      3  H   UNL     1      54.136 154.846  27.234  1.00  0.00     0.348 HD
ENDROOT
BRANCH   1   4
ATOM      4  C   UNL     1      53.025 156.292  26.322  1.00  0.00     0.353 C 
ATOM      5  C   UNL     1      52.791 156.905  27.641  1.00  0.00    -0.047 C 
ATOM      6  C   UNL     1      52.602 157.410  28.715  1.00  0.00     0.010 C 
ENDBRANCH   1   4
BRANCH   1   7
ATOM      7  C   UNL     1      54.288 154.480  25.263  1.00  0.00     0.185 C 
ATOM      8  C   UNL     1      54.971 155.640  24.517  1.00  0.00     0.075 C 
BRANCH   7   9
ATOM      9  C   UNL     1      53.418 153.625  24.301  1.00  0.00     0.100 C 
BRANCH   9  10
ATOM     10  C   UNL     1      54.028 152.283  23.957  1.00  0.00    -0.042 A 
ATOM     11  C   UNL     1      54.717 152.099  22.751  1.00  0.00     0.004 A 
ATOM     12  C   UNL     1      53.915 151.205  24.846  1.00  0.00     0.004 A 
ATOM     13  C   UNL     1      55.284 150.862  22.442  1.00  0.00     0.000 A 
ATOM     14  C   UNL     1      54.483 149.969  24.536  1.00  0.00     0.000 A 
ATOM     15  C   UNL     1      55.168 149.798  23.335  1.00  0.00     0.000 A 
ENDBRANCH   9  10
ENDBRANCH   7   9
ENDBRANCH   1   7
TORSDOF 4
ENDMDL
MODEL 3
REMARK VINA RESULT:    -7.133      3.575      7.066
REMARK INTER + INTRA:          -9.225
REMARK INTER:                  -8.524
REMARK INTRA:                  -0.702
REMARK UNBOUND:                -0.425
REMARK SMILES C#CC[N@@H+](C)[C@H](C)Cc1ccccc1
REMARK SMILES IDX 4 1 5 2 3 4 2 5 1 6 6 7 7 8 8 9 9 10 10 11 14 12 11 13 13 14
REMARK SMILES IDX 12 15
REMARK H PARENT 4 3
ROOT
ATOM      1  N   UNL     1      56.056 147.507  22.172  1.00  0.00    -0.325 N 
ATOM      2  C   UNL     1      57.253 147.002  21.494  1.00  0.00     0.333 C 
ATOM      3  H   UNL     1      55.878 146.864  22.943  1.00  0.00     0.348 HD
ENDROOT
BRANCH   1   4
ATOM      4  C   UNL     1      54.889 147.487  21.273  1.00  0.00     0.353 C 
ATOM      5  C   UNL     1      54.890 148.641  20.358  1.00  0.00    -0.047 C 
ATOM      6  C   UNL     1      54.889 149.580  19.607  1.00  0.00     0.010 C 
ENDBRANCH   1   4
BRANCH   1   7
ATOM      7  C   UNL     1      56.240 148.838  22.808  1.00  0.00     0.185 C 
ATOM      8  C   UNL     1      57.637 149.061  23.411  1.00  0.00     0.075 C 
BRANCH   7   9
ATOM      9  C   UNL     1      55.124 149.095  23.857  1.00  0.00     0.100 C 
BRANCH   9  10
ATOM     10  C   UNL     1      54.684 150.541  23.937  1.00  0.00    -0.042 A 
ATOM     11  C   UNL     1      54.034 151.029  25.079  1.00  0.00     0.004 A 
ATOM     12  C   UNL     1      54.926 151.415  22.868  1.00  0.00     0.004 A 
ATOM     13  C   UNL     1      53.637 152.365  25.150  1.00  0.00     0.000 A 
ATOM     14  C   UNL     1      54.529 152.751  22.942  1.00  0.00     0.000 A 
ATOM     15  C   UNL     1      53.887 153.226  24.083  1.00  0.00     0.000 A 
ENDBRANCH   9  10
ENDBRANCH   7   9
ENDBRANCH   1   7
TORSDOF 4
ENDMDL
MODEL 4
REMARK VINA RESULT:    -7.117      1.345      2.397
REMARK INTER + INTRA:          -9.206
REMARK INTER:                  -8.495
REMARK INTRA:                  -0.711
REMARK UNBOUND:                -0.425
REMARK SMILES C#CC[N@@H+](C)[C@H](C)Cc1ccccc1
REMARK SMILES IDX 4 1 5 2 3 4 2 5 1 6 6 7 7 8 8 9 9 10 10 11 14 12 11 13 13 14
REMARK SMILES IDX 12 15
REMARK H PARENT 4 3
ROOT
ATOM      1  N   UNL     1      53.299 154.585  26.835  1.00  0.00    -0.325 N 
ATOM      2  C   UNL     1      52.711 154.661  28.174  1.00  0.00     0.333 C 
ATOM      3  H   UNL     1      54.309 154.620  26.970  1.00  0.00     0.348 HD
ENDROOT
BRANCH   1   4
ATOM      4  C   UNL     1      52.900 155.739  26.013  1.00  0.00     0.353 C 
ATOM      5  C   UNL     1      53.988 156.174  25.121  1.00  0.00    -0.047 C 
ATOM      6  C   UNL     1      54.873 156.528  24.388  1.00  0.00     0.010 C 
ENDBRANCH   1   4
BRANCH   1   7
ATOM      7  C   UNL     1      53.044 153.297  26.137  1.00  0.00     0.185 C 
ATOM      8  C   UNL     1      51.946 152.436  26.784  1.00  0.00     0.075 C 
BRANCH   7   9
ATOM      9  C   UNL     1      54.366 152.497  25.975  1.00  0.00     0.100 C 
BRANCH   9  10
ATOM     10  C   UNL     1      54.592 151.971  24.574  1.00  0.00    -0.042 A 
ATOM     11  C   UNL     1      54.750 150.598  24.342  1.00  0.00     0.004 A 
ATOM     12  C   UNL     1      54.642 152.853  23.485  1.00  0.00     0.004 A 
ATOM     13  C   UNL     1      54.950 150.117  23.048  1.00  0.00     0.000 A 
ATOM     14  C   UNL     1      54.843 152.370  22.191  1.00  0.00     0.000 A 
ATOM     15  C   UNL     1      54.994 151.003  21.973  1.00  0.00     0.000 A 
ENDBRANCH   9  10
ENDBRANCH   7   9
ENDBRANCH   1   7
TORSDOF 4
ENDMDL
MODEL 5
REMARK VINA RESULT:    -7.104      2.324      5.825
REMARK INTER + INTRA:          -9.190
REMARK INTER:                  -8.470
REMARK INTRA:                  -0.720
REMARK UNBOUND:                -0.425
REMARK SMILES C#CC[N@@H+](C)[C@H](C)Cc1ccccc1
REMARK SMILES IDX 4 1 5 2 3 4 2 5 1 6 6 7 7 8 8 9 9 10 10 11 14 12 11 13 13 14
REMARK SMILES IDX 12 15
REMARK H PARENT 4 3
ROOT
ATOM      1  N   UNL     1      55.892 150.523  22.426  1.00  0.00    -0.325 N 
ATOM      2  C   UNL     1      55.311 149.511  21.540  1.00  0.00     0.333 C 
ATOM      3  H   UNL     1      56.809 150.742  22.039  1.00  0.00     0.348 HD
ENDROOT
BRANCH   1   4
ATOM      4  C   UNL     1      56.076 149.994  23.787  1.00  0.00     0.353 C 
ATOM      5  C   UNL     1      54.802 149.540  24.370  1.00  0.00    -0.047 C 
ATOM      6  C   UNL     1      53.765 149.164  24.848  1.00  0.00     0.010 C 
ENDBRANCH   1   4
BRANCH   1   7
ATOM      7  C   UNL     1      55.154 151.814  22.431  1.00  0.00     0.185 C 
ATOM      8  C   UNL     1      54.997 152.456  21.041  1.00  0.00     0.075 C 
BRANCH   7   9
ATOM      9  C   UNL     1      55.799 152.803  23.440  1.00  0.00     0.100 C 
BRANCH   9  10
ATOM     10  C   UNL     1      54.796 153.672  24.168  1.00  0.00    -0.042 A 
ATOM     11  C   UNL     1      55.037 155.039  24.355  1.00  0.00     0.004 A 
ATOM     12  C   UNL     1      53.606 153.118  24.663  1.00  0.00     0.004 A 
ATOM     13  C   UNL     1      54.105 155.837  25.020  1.00  0.00     0.000 A 
ATOM     14  C   UNL     1      52.676 153.917  25.327  1.00  0.00     0.000 A 
ATOM     15  C   UNL     1      52.924 155.277  25.504  1.00  0.00     0.000 A 
ENDBRANCH   9  10
ENDBRANCH   7   9
ENDBRANCH   1   7
TORSDOF 4
ENDMDL
MODEL 6
REMARK VINA RESULT:    -6.937      1.271      1.564
REMARK INTER + INTRA:          -8.984
REMARK INTER:                  -8.658
REMARK INTRA:                  -0.326
REMARK UNBOUND:                -0.425
REMARK SMILES C#CC[N@@H+](C)[C@H](C)Cc1ccccc1
REMARK SMILES IDX 4 1 5 2 3 4 2 5 1 6 6 7 7 8 8 9 9 10 10 11 14 12 11 13 13 14
REMARK SMILES IDX 12 15
REMARK H PARENT 4 3
ROOT
ATOM      1  N   UNL     1      53.419 154.067  26.581  1.00  0.00    -0.325 N 
ATOM      2  C   UNL     1      52.439 153.261  27.313  1.00  0.00     0.333 C 
ATOM      3  H   UNL     1      54.173 154.259  27.239  1.00  0.00     0.348 HD
ENDROOT
BRANCH   1   4
ATOM      4  C   UNL     1      52.837 155.351  26.154  1.00  0.00     0.353 C 
ATOM      5  C   UNL     1      52.768 156.313  27.267  1.00  0.00    -0.047 C 
ATOM      6  C   UNL     1      52.714 157.102  28.172  1.00  0.00     0.010 C 
ENDBRANCH   1   4
BRANCH   1   7
ATOM      7  C   UNL     1      54.063 153.350  25.449  1.00  0.00     0.185 C 
ATOM      8  C   UNL     1      53.755 153.951  24.066  1.00  0.00     0.075 C 
BRANCH   7   9
ATOM      9  C   UNL     1      53.715 151.837  25.498  1.00  0.00     0.100 C 
BRANCH   9  10
ATOM     10  C   UNL     1      54.754 150.951  24.845  1.00  0.00    -0.042 A 
ATOM     11  C   UNL     1      54.418 149.668  24.393  1.00  0.00     0.004 A 
ATOM     12  C   UNL     1      56.069 151.407  24.679  1.00  0.00     0.004 A 
ATOM     13  C   UNL     1      55.378 148.859  23.785  1.00  0.00     0.000 A 
ATOM     14  C   UNL     1      57.028 150.596  24.070  1.00  0.00     0.000 A 
ATOM     15  C   UNL     1      56.682 149.323  23.622  1.00  0.00     0.000 A 
ENDBRANCH   9  10
ENDBRANCH   7   9
ENDBRANCH   1   7
TORSDOF 4
ENDMDL
MODEL 7
REMARK VINA RESULT:    -6.928      6.626      8.993
REMARK INTER + INTRA:          -8.973
REMARK INTER:                  -8.735
REMARK INTRA:                  -0.237
REMARK UNBOUND:                -0.425
REMARK SMILES C#CC[N@@H+](C)[C@H](C)Cc1ccccc1
REMARK SMILES IDX 4 1 5 2 3 4 2 5 1 6 6 7 7 8 8 9 9 10 10 11 14 12 11 13 13 14
REMARK SMILES IDX 12 15
REMARK H PARENT 4 3
ROOT
ATOM      1  N   UNL     1      50.042 161.200  32.170  1.00  0.00    -0.325 N 
ATOM      2  C   UNL     1      49.630 160.415  33.336  1.00  0.00     0.333 C 
ATOM      3  H   UNL     1      50.411 162.077  32.538  1.00  0.00     0.348 HD
ENDROOT
BRANCH   1   4
ATOM      4  C   UNL     1      48.892 161.508  31.303  1.00  0.00     0.353 C 
ATOM      5  C   UNL     1      47.820 160.507  31.448  1.00  0.00    -0.047 C 
ATOM      6  C   UNL     1      46.942 159.695  31.566  1.00  0.00     0.010 C 
ENDBRANCH   1   4
BRANCH   1   7
ATOM      7  C   UNL     1      51.164 160.597  31.403  1.00  0.00     0.185 C 
ATOM      8  C   UNL     1      52.387 161.517  31.246  1.00  0.00     0.075 C 
BRANCH   7   9
ATOM      9  C   UNL     1      50.664 160.083  30.025  1.00  0.00     0.100 C 
BRANCH   9  10
ATOM     10  C   UNL     1      50.885 158.601  29.811  1.00  0.00    -0.042 A 
ATOM     11  C   UNL     1      49.869 157.678  30.091  1.00  0.00     0.004 A 
ATOM     12  C   UNL     1      52.113 158.131  29.324  1.00  0.00     0.004 A 
ATOM     13  C   UNL     1      50.076 156.313  29.884  1.00  0.00     0.000 A 
ATOM     14  C   UNL     1      52.318 156.767  29.117  1.00  0.00     0.000 A 
ATOM     15  C   UNL     1      51.299 155.859  29.396  1.00  0.00     0.000 A 
ENDBRANCH   9  10
ENDBRANCH   7   9
ENDBRANCH   1   7
TORSDOF 4
ENDMDL
MODEL 8
REMARK VINA RESULT:    -6.872      6.094      8.612
REMARK INTER + INTRA:          -8.904
REMARK INTER:                  -8.377
REMARK INTRA:                  -0.528
REMARK UNBOUND:                -0.425
REMARK SMILES C#CC[N@@H+](C)[C@H](C)Cc1ccccc1
REMARK SMILES IDX 4 1 5 2 3 4 2 5 1 6 6 7 7 8 8 9 9 10 10 11 14 12 11 13 13 14
REMARK SMILES IDX 12 15
REMARK H PARENT 4 3
ROOT
ATOM      1  N   UNL     1      49.531 160.443  32.124  1.00  0.00    -0.325 N 
ATOM      2  C   UNL     1      48.160 160.716  32.560  1.00  0.00     0.333 C 
ATOM      3  H   UNL     1      49.862 159.672  32.704  1.00  0.00     0.348 HD
ENDROOT
BRANCH   1   4
ATOM      4  C   UNL     1      50.404 161.606  32.356  1.00  0.00     0.353 C 
ATOM      5  C   UNL     1      51.650 161.515  31.575  1.00  0.00    -0.047 C 
ATOM      6  C   UNL     1      52.666 161.446  30.937  1.00  0.00     0.010 C 
ENDBRANCH   1   4
BRANCH   1   7
ATOM      7  C   UNL     1      49.632 159.949  30.725  1.00  0.00     0.185 C 
ATOM      8  C   UNL     1      48.794 160.749  29.713  1.00  0.00     0.075 C 
BRANCH   7   9
ATOM      9  C   UNL     1      49.298 158.433  30.661  1.00  0.00     0.100 C 
BRANCH   9  10
ATOM     10  C   UNL     1      50.365 157.603  29.981  1.00  0.00    -0.042 A 
ATOM     11  C   UNL     1      50.155 156.241  29.722  1.00  0.00     0.004 A 
ATOM     12  C   UNL     1      51.580 158.187  29.596  1.00  0.00     0.004 A 
ATOM     13  C   UNL     1      51.139 155.482  29.088  1.00  0.00     0.000 A 
ATOM     14  C   UNL     1      52.563 157.427  28.962  1.00  0.00     0.000 A 
ATOM     15  C   UNL     1      52.342 156.075  28.707  1.00  0.00     0.000 A 
ENDBRANCH   9  10
ENDBRANCH   7   9
ENDBRANCH   1   7
TORSDOF 4
ENDMDL
MODEL 9
REMARK VINA RESULT:    -6.767      1.971      5.870
REMARK INTER + INTRA:          -8.774
REMARK INTER:                  -8.646
REMARK INTRA:                  -0.128
REMARK UNBOUND:                -0.425
REMARK SMILES C#CC[N@@H+](C)[C@H](C)Cc1ccccc1
REMARK SMILES IDX 4 1 5 2 3 4 2 5 1 6 6 7 7 8 8 9 9 10 10 11 14 12 11 13 13 14
REMARK SMILES IDX 12 15
REMARK H PARENT 4 3
ROOT
ATOM      1  N   UNL     1      56.216 151.401  22.858  1.00  0.00    -0.325 N 
ATOM      2  C   UNL     1      55.250 151.163  21.783  1.00  0.00     0.333 C 
ATOM      3  H   UNL     1      57.086 151.670  22.400  1.00  0.00     0.348 HD
ENDROOT
BRANCH   1   4
ATOM      4  C   UNL     1      56.459 150.174  23.635  1.00  0.00     0.353 C 
ATOM      5  C   UNL     1      55.202 149.583  24.125  1.00  0.00    -0.047 C 
ATOM      6  C   UNL     1      54.178 149.096  24.523  1.00  0.00     0.010 C 
ENDBRANCH   1   4
BRANCH   1   7
ATOM      7  C   UNL     1      55.868 152.550  23.736  1.00  0.00     0.185 C 
ATOM      8  C   UNL     1      56.456 152.459  25.155  1.00  0.00     0.075 C 
BRANCH   7   9
ATOM      9  C   UNL     1      54.329 152.755  23.775  1.00  0.00     0.100 C 
BRANCH   9  10
ATOM     10  C   UNL     1      53.895 153.969  24.568  1.00  0.00    -0.042 A 
ATOM     11  C   UNL     1      54.533 155.204  24.390  1.00  0.00     0.004 A 
ATOM     12  C   UNL     1      52.845 153.875  25.491  1.00  0.00     0.004 A 
ATOM     13  C   UNL     1      54.125 156.322  25.118  1.00  0.00     0.000 A 
ATOM     14  C   UNL     1      52.438 154.994  26.218  1.00  0.00     0.000 A 
ATOM     15  C   UNL     1      53.076 156.217  26.030  1.00  0.00     0.000 A 
ENDBRANCH   9  10
ENDBRANCH   7   9
ENDBRANCH   1   7
TORSDOF 4
ENDMDL
