MODEL 1
REMARK VINA RESULT:    -7.690      0.000      0.000
REMARK INTER + INTRA:         -10.769
REMARK INTER:                 -10.387
REMARK INTRA:                  -0.382
REMARK UNBOUND:                -0.382
REMARK SMILES C#CC[N@H+](C)CCCOc1ccc(Cl)cc1Cl
REMARK SMILES IDX 7 1 6 2 4 3 5 4 3 6 2 7 1 8 8 9 9 10 10 11 11 12 16 13 12 14
REMARK SMILES IDX 15 15 13 16 17 17 14 18
REMARK H PARENT 4 5
ROOT
ATOM      1  C   UNL     1      40.327  26.969 -12.826  1.00  0.00     0.103 C 
ENDROOT
BRANCH   1   2
ATOM      2  C   UNL     1      41.808  27.372 -12.798  1.00  0.00     0.266 C 
BRANCH   2   3
ATOM      3  N   UNL     1      42.690  26.297 -13.284  1.00  0.00    -0.327 N 
ATOM      4  C   UNL     1      42.383  25.897 -14.658  1.00  0.00     0.333 C 
ATOM      5  H   UNL     1      42.506  25.485 -12.693  1.00  0.00     0.348 HD
BRANCH   3   6
ATOM      6  C   UNL     1      44.114  26.646 -13.131  1.00  0.00     0.353 C 
ATOM      7  C   UNL     1      45.054  25.561 -13.459  1.00  0.00    -0.047 C 
ATOM      8  C   UNL     1      45.822  24.677 -13.730  1.00  0.00     0.010 C 
ENDBRANCH   3   6
ENDBRANCH   2   3
ENDBRANCH   1   2
BRANCH   1   9
ATOM      9  C   UNL     1      39.459  28.053 -13.465  1.00  0.00     0.235 C 
BRANCH   9  10
ATOM     10  O   UNL     1      39.121  27.649 -14.790  1.00  0.00    -0.492 OA
BRANCH  10  11
ATOM     11  C   UNL     1      38.097  28.302 -15.423  1.00  0.00     0.137 A 
ATOM     12  C   UNL     1      37.252  29.232 -14.809  1.00  0.00     0.049 A 
ATOM     13  C   UNL     1      37.893  27.993 -16.780  1.00  0.00     0.084 A 
ATOM     14  C   UNL     1      36.228  29.845 -15.540  1.00  0.00     0.024 A 
ATOM     15  C   UNL     1      36.872  28.604 -17.510  1.00  0.00     0.045 A 
ATOM     16  C   UNL     1      36.043  29.528 -16.884  1.00  0.00     0.042 A 
ATOM     17  Cl  UNL     1      38.902  26.852 -17.602  1.00  0.00    -0.080 Cl
ATOM     18  Cl  UNL     1      34.780  30.286 -17.773  1.00  0.00    -0.084 Cl
ENDBRANCH  10  11
ENDBRANCH   9  10
ENDBRANCH   1   9
TORSDOF 6
ENDMDL
MODEL 2
REMARK VINA RESULT:    -7.659      3.865      7.599
REMARK INTER + INTRA:         -10.727
REMARK INTER:                 -10.028
REMARK INTRA:                  -0.699
REMARK UNBOUND:                -0.382
REMARK SMILES C#CC[N@H+](C)CCCOc1ccc(Cl)cc1Cl
REMARK SMILES IDX 7 1 6 2 4 3 5 4 3 6 2 7 1 8 8 9 9 10 10 11 11 12 16 13 12 14
REMARK SMILES IDX 15 15 13 16 17 17 14 18
REMARK H PARENT 4 5
ROOT
ATOM      1  C   UNL     1      35.963  31.881 -15.540  1.00  0.00     0.103 C 
ENDROOT
BRANCH   1   2
ATOM      2  C   UNL     1      34.672  31.064 -15.391  1.00  0.00     0.266 C 
BRANCH   2   3
ATOM      3  N   UNL     1      34.403  30.692 -13.991  1.00  0.00    -0.327 N 
ATOM      4  C   UNL     1      35.185  31.483 -13.040  1.00  0.00     0.333 C 
ATOM      5  H   UNL     1      34.707  29.723 -13.888  1.00  0.00     0.348 HD
BRANCH   3   6
ATOM      6  C   UNL     1      32.963  30.745 -13.678  1.00  0.00     0.353 C 
ATOM      7  C   UNL     1      32.545  29.891 -12.553  1.00  0.00    -0.047 C 
ATOM      8  C   UNL     1      32.204  29.197 -11.634  1.00  0.00     0.010 C 
ENDBRANCH   3   6
ENDBRANCH   2   3
ENDBRANCH   1   2
BRANCH   1   9
ATOM      9  C   UNL     1      37.050  31.093 -16.270  1.00  0.00     0.235 C 
BRANCH   9  10
ATOM     10  O   UNL     1      36.760  29.701 -16.160  1.00  0.00    -0.492 OA
BRANCH  10  11
ATOM     11  C   UNL     1      37.670  28.901 -15.523  1.00  0.00     0.137 A 
ATOM     12  C   UNL     1      38.201  29.160 -14.255  1.00  0.00     0.049 A 
ATOM     13  C   UNL     1      38.094  27.751 -16.213  1.00  0.00     0.084 A 
ATOM     14  C   UNL     1      39.132  28.282 -13.687  1.00  0.00     0.024 A 
ATOM     15  C   UNL     1      39.022  26.874 -15.648  1.00  0.00     0.045 A 
ATOM     16  C   UNL     1      39.537  27.147 -14.384  1.00  0.00     0.042 A 
ATOM     17  Cl  UNL     1      37.477  27.370 -17.785  1.00  0.00    -0.080 Cl
ATOM     18  Cl  UNL     1      40.682  26.075 -13.678  1.00  0.00    -0.084 Cl
ENDBRANCH  10  11
ENDBRANCH   9  10
ENDBRANCH   1   9
TORSDOF 6
ENDMDL
MODEL 3
REMARK VINA RESULT:    -7.510      3.100      7.338
REMARK INTER + INTRA:         -10.526
REMARK INTER:                 -10.009
REMARK INTRA:                  -0.517
REMARK UNBOUND:                -0.382
REMARK SMILES C#CC[N@H+](C)CCCOc1ccc(Cl)cc1Cl
REMARK SMILES IDX 7 1 6 2 4 3 5 4 3 6 2 7 1 8 8 9 9 10 10 11 11 12 16 13 12 14
REMARK SMILES IDX 15 15 13 16 17 17 14 18
REMARK H PARENT 4 5
ROOT
ATOM      1  C   UNL     1      37.539  28.370 -16.814  1.00  0.00     0.103 C 
ENDROOT
BRANCH   1   2
ATOM      2  C   UNL     1      36.427  29.374 -17.149  1.00  0.00     0.266 C 
BRANCH   2   3
ATOM      3  N   UNL     1      36.402  30.514 -16.216  1.00  0.00    -0.327 N 
ATOM      4  C   UNL     1      36.959  31.733 -16.804  1.00  0.00     0.333 C 
ATOM      5  H   UNL     1      37.010  30.260 -15.436  1.00  0.00     0.348 HD
BRANCH   3   6
ATOM      6  C   UNL     1      35.052  30.748 -15.673  1.00  0.00     0.353 C 
ATOM      7  C   UNL     1      35.017  31.133 -14.252  1.00  0.00    -0.047 C 
ATOM      8  C   UNL     1      34.988  31.451 -13.094  1.00  0.00     0.010 C 
ENDBRANCH   3   6
ENDBRANCH   2   3
ENDBRANCH   1   2
BRANCH   1   9
ATOM      9  C   UNL     1      37.958  28.458 -15.347  1.00  0.00     0.235 C 
BRANCH   9  10
ATOM     10  O   UNL     1      38.359  27.163 -14.905  1.00  0.00    -0.492 OA
BRANCH  10  11
ATOM     11  C   UNL     1      39.543  27.051 -14.227  1.00  0.00     0.137 A 
ATOM     12  C   UNL     1      39.722  27.391 -12.882  1.00  0.00     0.049 A 
ATOM     13  C   UNL     1      40.646  26.568 -14.956  1.00  0.00     0.084 A 
ATOM     14  C   UNL     1      40.975  27.244 -12.278  1.00  0.00     0.024 A 
ATOM     15  C   UNL     1      41.897  26.422 -14.354  1.00  0.00     0.045 A 
ATOM     16  C   UNL     1      42.055  26.762 -13.015  1.00  0.00     0.042 A 
ATOM     17  Cl  UNL     1      40.496  26.129 -16.624  1.00  0.00    -0.080 Cl
ATOM     18  Cl  UNL     1      43.591  26.587 -12.262  1.00  0.00    -0.084 Cl
ENDBRANCH  10  11
ENDBRANCH   9  10
ENDBRANCH   1   9
TORSDOF 6
ENDMDL
MODEL 4
REMARK VINA RESULT:    -7.413      3.110      7.699
REMARK INTER + INTRA:         -10.395
REMARK INTER:                  -9.909
REMARK INTRA:                  -0.486
REMARK UNBOUND:                -0.382
REMARK SMILES C#CC[N@H+](C)CCCOc1ccc(Cl)cc1Cl
REMARK SMILES IDX 7 1 6 2 4 3 5 4 3 6 2 7 1 8 8 9 9 10 10 11 11 12 16 13 12 14
REMARK SMILES IDX 15 15 13 16 17 17 14 18
REMARK H PARENT 4 5
ROOT
ATOM      1  C   UNL     1      37.983  27.600 -16.821  1.00  0.00     0.103 C 
ENDROOT
BRANCH   1   2
ATOM      2  C   UNL     1      37.687  28.547 -15.649  1.00  0.00     0.266 C 
BRANCH   2   3
ATOM      3  N   UNL     1      36.771  29.638 -16.028  1.00  0.00    -0.327 N 
ATOM      4  C   UNL     1      37.443  30.936 -16.096  1.00  0.00     0.333 C 
ATOM      5  H   UNL     1      36.078  29.703 -15.281  1.00  0.00     0.348 HD
BRANCH   3   6
ATOM      6  C   UNL     1      36.052  29.338 -17.280  1.00  0.00     0.353 C 
ATOM      7  C   UNL     1      34.990  30.298 -17.625  1.00  0.00    -0.047 C 
ATOM      8  C   UNL     1      34.126  31.082 -17.910  1.00  0.00     0.010 C 
ENDBRANCH   3   6
ENDBRANCH   2   3
ENDBRANCH   1   2
BRANCH   1   9
ATOM      9  C   UNL     1      39.090  26.604 -16.477  1.00  0.00     0.235 C 
BRANCH   9  10
ATOM     10  O   UNL     1      39.351  26.673 -15.077  1.00  0.00    -0.492 OA
BRANCH  10  11
ATOM     11  C   UNL     1      40.650  26.568 -14.657  1.00  0.00     0.137 A 
ATOM     12  C   UNL     1      41.638  25.828 -15.316  1.00  0.00     0.049 A 
ATOM     13  C   UNL     1      40.990  27.249 -13.475  1.00  0.00     0.084 A 
ATOM     14  C   UNL     1      42.940  25.777 -14.805  1.00  0.00     0.024 A 
ATOM     15  C   UNL     1      42.289  27.199 -12.963  1.00  0.00     0.045 A 
ATOM     16  C   UNL     1      43.258  26.461 -13.634  1.00  0.00     0.042 A 
ATOM     17  Cl  UNL     1      39.817  28.183 -12.609  1.00  0.00    -0.080 Cl
ATOM     18  Cl  UNL     1      44.861  26.391 -13.014  1.00  0.00    -0.084 Cl
ENDBRANCH  10  11
ENDBRANCH   9  10
ENDBRANCH   1   9
TORSDOF 6
ENDMDL
MODEL 5
REMARK VINA RESULT:    -7.376      2.847      7.569
REMARK INTER + INTRA:         -10.345
REMARK INTER:                 -10.096
REMARK INTRA:                  -0.249
REMARK UNBOUND:                -0.382
REMARK SMILES C#CC[N@H+](C)CCCOc1ccc(Cl)cc1Cl
REMARK SMILES IDX 7 1 6 2 4 3 5 4 3 6 2 7 1 8 8 9 9 10 10 11 11 12 16 13 12 14
REMARK SMILES IDX 15 15 13 16 17 17 14 18
REMARK H PARENT 4 5
ROOT
ATOM      1  C   UNL     1      38.823  28.713 -13.974  1.00  0.00     0.103 C 
ENDROOT
BRANCH   1   2
ATOM      2  C   UNL     1      38.385  27.954 -15.236  1.00  0.00     0.266 C 
BRANCH   2   3
ATOM      3  N   UNL     1      37.818  28.850 -16.259  1.00  0.00    -0.327 N 
ATOM      4  C   UNL     1      37.598  28.173 -17.537  1.00  0.00     0.333 C 
ATOM      5  H   UNL     1      38.517  29.574 -16.426  1.00  0.00     0.348 HD
BRANCH   3   6
ATOM      6  C   UNL     1      36.591  29.514 -15.784  1.00  0.00     0.353 C 
ATOM      7  C   UNL     1      35.662  29.929 -16.849  1.00  0.00    -0.047 C 
ATOM      8  C   UNL     1      34.903  30.264 -17.717  1.00  0.00     0.010 C 
ENDBRANCH   3   6
ENDBRANCH   2   3
ENDBRANCH   1   2
BRANCH   1   9
ATOM      9  C   UNL     1      39.939  27.978 -13.231  1.00  0.00     0.235 C 
BRANCH   9  10
ATOM     10  O   UNL     1      40.571  27.072 -14.132  1.00  0.00    -0.492 OA
BRANCH  10  11
ATOM     11  C   UNL     1      41.848  26.666 -13.850  1.00  0.00     0.137 A 
ATOM     12  C   UNL     1      42.526  26.955 -12.661  1.00  0.00     0.049 A 
ATOM     13  C   UNL     1      42.508  25.919 -14.842  1.00  0.00     0.084 A 
ATOM     14  C   UNL     1      43.834  26.499 -12.466  1.00  0.00     0.024 A 
ATOM     15  C   UNL     1      43.814  25.464 -14.649  1.00  0.00     0.045 A 
ATOM     16  C   UNL     1      44.471  25.757 -13.459  1.00  0.00     0.042 A 
ATOM     17  Cl  UNL     1      41.729  25.526 -16.337  1.00  0.00    -0.080 Cl
ATOM     18  Cl  UNL     1      46.080  25.203 -13.210  1.00  0.00    -0.084 Cl
ENDBRANCH  10  11
ENDBRANCH   9  10
ENDBRANCH   1   9
TORSDOF 6
ENDMDL
MODEL 6
REMARK VINA RESULT:    -7.361      3.102      7.706
REMARK INTER + INTRA:         -10.325
REMARK INTER:                  -9.812
REMARK INTRA:                  -0.513
REMARK UNBOUND:                -0.382
REMARK SMILES C#CC[N@H+](C)CCCOc1ccc(Cl)cc1Cl
REMARK SMILES IDX 7 1 6 2 4 3 5 4 3 6 2 7 1 8 8 9 9 10 10 11 11 12 16 13 12 14
REMARK SMILES IDX 15 15 13 16 17 17 14 18
REMARK H PARENT 4 5
ROOT
ATOM      1  C   UNL     1      37.473  28.461 -16.755  1.00  0.00     0.103 C 
ENDROOT
BRANCH   1   2
ATOM      2  C   UNL     1      36.318  29.428 -17.052  1.00  0.00     0.266 C 
BRANCH   2   3
ATOM      3  N   UNL     1      36.264  30.548 -16.096  1.00  0.00    -0.327 N 
ATOM      4  C   UNL     1      36.815  31.785 -16.650  1.00  0.00     0.333 C 
ATOM      5  H   UNL     1      36.863  30.284 -15.312  1.00  0.00     0.348 HD
BRANCH   3   6
ATOM      6  C   UNL     1      34.903  30.752 -15.570  1.00  0.00     0.353 C 
ATOM      7  C   UNL     1      33.916  31.196 -16.569  1.00  0.00    -0.047 C 
ATOM      8  C   UNL     1      33.109  31.554 -17.384  1.00  0.00     0.010 C 
ENDBRANCH   3   6
ENDBRANCH   2   3
ENDBRANCH   1   2
BRANCH   1   9
ATOM      9  C   UNL     1      37.930  28.557 -15.300  1.00  0.00     0.235 C 
BRANCH   9  10
ATOM     10  O   UNL     1      38.306  27.257 -14.850  1.00  0.00    -0.492 OA
BRANCH  10  11
ATOM     11  C   UNL     1      39.500  27.121 -14.194  1.00  0.00     0.137 A 
ATOM     12  C   UNL     1      39.708  27.451 -12.851  1.00  0.00     0.049 A 
ATOM     13  C   UNL     1      40.581  26.624 -14.945  1.00  0.00     0.084 A 
ATOM     14  C   UNL     1      40.970  27.281 -12.269  1.00  0.00     0.024 A 
ATOM     15  C   UNL     1      41.840  26.454 -14.366  1.00  0.00     0.045 A 
ATOM     16  C   UNL     1      42.027  26.784 -13.028  1.00  0.00     0.042 A 
ATOM     17  Cl  UNL     1      40.393  26.196 -16.612  1.00  0.00    -0.080 Cl
ATOM     18  Cl  UNL     1      43.574  26.580 -12.304  1.00  0.00    -0.084 Cl
ENDBRANCH  10  11
ENDBRANCH   9  10
ENDBRANCH   1   9
TORSDOF 6
ENDMDL
MODEL 7
REMARK VINA RESULT:    -7.227      2.312      3.193
REMARK INTER + INTRA:         -10.144
REMARK INTER:                  -9.827
REMARK INTRA:                  -0.317
REMARK UNBOUND:                -0.382
REMARK SMILES C#CC[N@H+](C)CCCOc1ccc(Cl)cc1Cl
REMARK SMILES IDX 7 1 6 2 4 3 5 4 3 6 2 7 1 8 8 9 9 10 10 11 11 12 16 13 12 14
REMARK SMILES IDX 15 15 13 16 17 17 14 18
REMARK H PARENT 4 5
ROOT
ATOM      1  C   UNL     1      39.108  28.137 -14.149  1.00  0.00     0.103 C 
ENDROOT
BRANCH   1   2
ATOM      2  C   UNL     1      39.303  26.623 -13.981  1.00  0.00     0.266 C 
BRANCH   2   3
ATOM      3  N   UNL     1      40.720  26.257 -13.810  1.00  0.00    -0.327 N 
ATOM      4  C   UNL     1      41.404  26.047 -15.087  1.00  0.00     0.333 C 
ATOM      5  H   UNL     1      40.728  25.361 -13.320  1.00  0.00     0.348 HD
BRANCH   3   6
ATOM      6  C   UNL     1      41.439  27.232 -12.969  1.00  0.00     0.353 C 
ATOM      7  C   UNL     1      42.899  27.045 -12.920  1.00  0.00    -0.047 C 
ATOM      8  C   UNL     1      44.090  26.896 -12.882  1.00  0.00     0.010 C 
ENDBRANCH   3   6
ENDBRANCH   2   3
ENDBRANCH   1   2
BRANCH   1   9
ATOM      9  C   UNL     1      38.017  28.456 -15.171  1.00  0.00     0.235 C 
BRANCH   9  10
ATOM     10  O   UNL     1      37.168  29.468 -14.635  1.00  0.00    -0.492 OA
BRANCH  10  11
ATOM     11  C   UNL     1      36.181  29.975 -15.439  1.00  0.00     0.137 A 
ATOM     12  C   UNL     1      36.022  29.658 -16.792  1.00  0.00     0.049 A 
ATOM     13  C   UNL     1      35.285  30.881 -14.845  1.00  0.00     0.084 A 
ATOM     14  C   UNL     1      34.983  30.232 -17.533  1.00  0.00     0.024 A 
ATOM     15  C   UNL     1      34.248  31.455 -15.583  1.00  0.00     0.045 A 
ATOM     16  C   UNL     1      34.103  31.126 -16.926  1.00  0.00     0.042 A 
ATOM     17  Cl  UNL     1      35.424  31.317 -13.175  1.00  0.00    -0.080 Cl
ATOM     18  Cl  UNL     1      32.830  31.827 -17.847  1.00  0.00    -0.084 Cl
ENDBRANCH  10  11
ENDBRANCH   9  10
ENDBRANCH   1   9
TORSDOF 6
ENDMDL
MODEL 8
REMARK VINA RESULT:    -7.151      3.977      7.630
REMARK INTER + INTRA:         -10.040
REMARK INTER:                  -9.480
REMARK INTRA:                  -0.561
REMARK UNBOUND:                -0.382
REMARK SMILES C#CC[N@H+](C)CCCOc1ccc(Cl)cc1Cl
REMARK SMILES IDX 7 1 6 2 4 3 5 4 3 6 2 7 1 8 8 9 9 10 10 11 11 12 16 13 12 14
REMARK SMILES IDX 15 15 13 16 17 17 14 18
REMARK H PARENT 4 5
ROOT
ATOM      1  C   UNL     1      35.512  30.130 -17.190  1.00  0.00     0.103 C 
ENDROOT
BRANCH   1   2
ATOM      2  C   UNL     1      35.100  31.608 -17.113  1.00  0.00     0.266 C 
BRANCH   2   3
ATOM      3  N   UNL     1      33.894  31.812 -16.292  1.00  0.00    -0.327 N 
ATOM      4  C   UNL     1      32.664  31.779 -17.083  1.00  0.00     0.333 C 
ATOM      5  H   UNL     1      33.969  32.752 -15.901  1.00  0.00     0.348 HD
BRANCH   3   6
ATOM      6  C   UNL     1      33.834  30.863 -15.165  1.00  0.00     0.353 C 
ATOM      7  C   UNL     1      34.653  31.238 -13.999  1.00  0.00    -0.047 C 
ATOM      8  C   UNL     1      35.318  31.545 -13.047  1.00  0.00     0.010 C 
ENDBRANCH   3   6
ENDBRANCH   2   3
ENDBRANCH   1   2
BRANCH   1   9
ATOM      9  C   UNL     1      36.987  29.935 -16.841  1.00  0.00     0.235 C 
BRANCH   9  10
ATOM     10  O   UNL     1      37.203  28.566 -16.507  1.00  0.00    -0.492 OA
BRANCH  10  11
ATOM     11  C   UNL     1      38.080  28.280 -15.495  1.00  0.00     0.137 A 
ATOM     12  C   UNL     1      38.201  29.023 -14.317  1.00  0.00     0.049 A 
ATOM     13  C   UNL     1      38.915  27.162 -15.679  1.00  0.00     0.084 A 
ATOM     14  C   UNL     1      39.132  28.653 -13.340  1.00  0.00     0.024 A 
ATOM     15  C   UNL     1      39.845  26.792 -14.706  1.00  0.00     0.045 A 
ATOM     16  C   UNL     1      39.948  27.542 -13.539  1.00  0.00     0.042 A 
ATOM     17  Cl  UNL     1      38.819  26.198 -17.113  1.00  0.00    -0.080 Cl
ATOM     18  Cl  UNL     1      41.091  27.096 -12.333  1.00  0.00    -0.084 Cl
ENDBRANCH  10  11
ENDBRANCH   9  10
ENDBRANCH   1   9
TORSDOF 6
ENDMDL
MODEL 9
REMARK VINA RESULT:    -6.937      3.853      7.309
REMARK INTER + INTRA:          -9.752
REMARK INTER:                  -9.185
REMARK INTRA:                  -0.566
REMARK UNBOUND:                -0.382
REMARK SMILES C#CC[N@H+](C)CCCOc1ccc(Cl)cc1Cl
REMARK SMILES IDX 7 1 6 2 4 3 5 4 3 6 2 7 1 8 8 9 9 10 10 11 11 12 16 13 12 14
REMARK SMILES IDX 15 15 13 16 17 17 14 18
REMARK H PARENT 4 5
ROOT
ATOM      1  C   UNL     1      34.855  30.684 -15.497  1.00  0.00     0.103 C 
ENDROOT
BRANCH   1   2
ATOM      2  C   UNL     1      35.049  30.654 -17.020  1.00  0.00     0.266 C 
BRANCH   2   3
ATOM      3  N   UNL     1      34.824  31.972 -17.639  1.00  0.00    -0.327 N 
ATOM      4  C   UNL     1      33.449  32.444 -17.471  1.00  0.00     0.333 C 
ATOM      5  H   UNL     1      34.972  31.847 -18.642  1.00  0.00     0.348 HD
BRANCH   3   6
ATOM      6  C   UNL     1      35.798  32.972 -17.165  1.00  0.00     0.353 C 
ATOM      7  C   UNL     1      37.197  32.514 -17.158  1.00  0.00    -0.047 C 
ATOM      8  C   UNL     1      38.340  32.143 -17.155  1.00  0.00     0.010 C 
ENDBRANCH   3   6
ENDBRANCH   2   3
ENDBRANCH   1   2
BRANCH   1   9
ATOM      9  C   UNL     1      35.987  29.962 -14.768  1.00  0.00     0.235 C 
BRANCH   9  10
ATOM     10  O   UNL     1      36.736  29.206 -15.718  1.00  0.00    -0.492 OA
BRANCH  10  11
ATOM     11  C   UNL     1      37.824  28.505 -15.271  1.00  0.00     0.137 A 
ATOM     12  C   UNL     1      38.442  28.707 -14.033  1.00  0.00     0.049 A 
ATOM     13  C   UNL     1      38.346  27.528 -16.138  1.00  0.00     0.084 A 
ATOM     14  C   UNL     1      39.555  27.941 -13.667  1.00  0.00     0.024 A 
ATOM     15  C   UNL     1      39.457  26.764 -15.774  1.00  0.00     0.045 A 
ATOM     16  C   UNL     1      40.056  26.976 -14.537  1.00  0.00     0.042 A 
ATOM     17  Cl  UNL     1      37.630  27.226 -17.685  1.00  0.00    -0.080 Cl
ATOM     18  Cl  UNL     1      41.426  26.042 -14.078  1.00  0.00    -0.084 Cl
ENDBRANCH  10  11
ENDBRANCH   9  10
ENDBRANCH   1   9
TORSDOF 6
ENDMDL
