MODEL 1
REMARK VINA RESULT:    -8.660      0.000      0.000
REMARK INTER + INTRA:          -9.207
REMARK INTER:                  -9.166
REMARK INTRA:                  -0.041
REMARK UNBOUND:                -0.041
REMARK SMILES COc1ccc2c(c1)[nH]c1c(C)nccc12
REMARK SMILES IDX 3 1 4 2 5 3 6 4 7 5 8 6 9 7 10 8 11 9 12 10 13 11 14 12
REMARK SMILES IDX 15 13 16 14 2 16 1 17
REMARK H PARENT 9 15
ROOT
ATOM      1  C   UNL     1      36.159  29.330 -16.919  1.00  0.00     0.120 A 
ATOM      2  C   UNL     1      36.067  29.881 -15.642  1.00  0.00     0.047 A 
ATOM      3  C   UNL     1      36.995  29.543 -14.645  1.00  0.00     0.015 A 
ATOM      4  C   UNL     1      38.034  28.636 -14.935  1.00  0.00     0.008 A 
ATOM      5  C   UNL     1      38.103  28.099 -16.218  1.00  0.00     0.050 A 
ATOM      6  C   UNL     1      37.184  28.427 -17.225  1.00  0.00     0.073 A 
ATOM      7  N   UNL     1      39.187  27.255 -16.246  1.00  0.00    -0.353 N 
ATOM      8  C   UNL     1      39.822  27.226 -15.026  1.00  0.00     0.068 A 
ATOM      9  C   UNL     1      40.952  26.514 -14.607  1.00  0.00     0.061 A 
ATOM     10  C   UNL     1      41.734  25.584 -15.479  1.00  0.00     0.069 C 
ATOM     11  N   UNL     1      41.366  26.681 -13.321  1.00  0.00    -0.259 NA
ATOM     12  C   UNL     1      40.688  27.511 -12.500  1.00  0.00     0.112 A 
ATOM     13  C   UNL     1      39.566  28.238 -12.862  1.00  0.00     0.031 A 
ATOM     14  C   UNL     1      39.118  28.085 -14.182  1.00  0.00     0.011 A 
ATOM     15  H   UNL     1      39.471  26.739 -17.034  1.00  0.00     0.167 HD
ENDROOT
BRANCH   1  16
ATOM     16  O   UNL     1      35.312  29.588 -17.965  1.00  0.00    -0.497 OA
ATOM     17  C   UNL     1      34.472  30.729 -17.848  1.00  0.00     0.278 C 
ENDBRANCH   1  16
TORSDOF 1
ENDMDL
MODEL 2
REMARK VINA RESULT:    -8.645      1.604      3.206
REMARK INTER + INTRA:          -9.192
REMARK INTER:                  -9.154
REMARK INTRA:                  -0.039
REMARK UNBOUND:                -0.041
REMARK SMILES COc1ccc2c(c1)[nH]c1c(C)nccc12
REMARK SMILES IDX 3 1 4 2 5 3 6 4 7 5 8 6 9 7 10 8 11 9 12 10 13 11 14 12
REMARK SMILES IDX 15 13 16 14 2 16 1 17
REMARK H PARENT 9 15
ROOT
ATOM      1  C   UNL     1      34.423  31.102 -16.714  1.00  0.00     0.120 A 
ATOM      2  C   UNL     1      34.647  30.352 -17.867  1.00  0.00     0.047 A 
ATOM      3  C   UNL     1      35.667  29.389 -17.911  1.00  0.00     0.015 A 
ATOM      4  C   UNL     1      36.475  29.175 -16.776  1.00  0.00     0.008 A 
ATOM      5  C   UNL     1      36.231  29.938 -15.638  1.00  0.00     0.050 A 
ATOM      6  C   UNL     1      35.217  30.903 -15.578  1.00  0.00     0.073 A 
ATOM      7  N   UNL     1      37.141  29.545 -14.685  1.00  0.00    -0.353 N 
ATOM      8  C   UNL     1      37.966  28.555 -15.167  1.00  0.00     0.068 A 
ATOM      9  C   UNL     1      39.020  27.871 -14.551  1.00  0.00     0.061 A 
ATOM     10  C   UNL     1      39.475  28.113 -13.147  1.00  0.00     0.069 C 
ATOM     11  N   UNL     1      39.672  26.925 -15.279  1.00  0.00    -0.259 NA
ATOM     12  C   UNL     1      39.294  26.676 -16.551  1.00  0.00     0.112 A 
ATOM     13  C   UNL     1      38.260  27.322 -17.208  1.00  0.00     0.031 A 
ATOM     14  C   UNL     1      37.571  28.303 -16.481  1.00  0.00     0.011 A 
ATOM     15  H   UNL     1      37.195  29.923 -13.778  1.00  0.00     0.167 HD
ENDROOT
BRANCH   1  16
ATOM     16  O   UNL     1      33.460  32.065 -16.560  1.00  0.00    -0.497 OA
ATOM     17  C   UNL     1      33.228  32.928 -17.666  1.00  0.00     0.278 C 
ENDBRANCH   1  16
TORSDOF 1
ENDMDL
MODEL 3
REMARK VINA RESULT:    -8.429      2.731      5.938
REMARK INTER + INTRA:          -8.963
REMARK INTER:                  -8.903
REMARK INTRA:                  -0.061
REMARK UNBOUND:                -0.041
REMARK SMILES COc1ccc2c(c1)[nH]c1c(C)nccc12
REMARK SMILES IDX 3 1 4 2 5 3 6 4 7 5 8 6 9 7 10 8 11 9 12 10 13 11 14 12
REMARK SMILES IDX 15 13 16 14 2 16 1 17
REMARK H PARENT 9 15
ROOT
ATOM      1  C   UNL     1      39.493  26.927 -15.891  1.00  0.00     0.120 A 
ATOM      2  C   UNL     1      38.970  26.942 -17.183  1.00  0.00     0.047 A 
ATOM      3  C   UNL     1      37.868  27.749 -17.503  1.00  0.00     0.015 A 
ATOM      4  C   UNL     1      37.280  28.556 -16.508  1.00  0.00     0.008 A 
ATOM      5  C   UNL     1      37.821  28.522 -15.226  1.00  0.00     0.050 A 
ATOM      6  C   UNL     1      38.921  27.722 -14.890  1.00  0.00     0.073 A 
ATOM      7  N   UNL     1      37.080  29.383 -14.452  1.00  0.00    -0.353 N 
ATOM      8  C   UNL     1      36.078  29.973 -15.188  1.00  0.00     0.068 A 
ATOM      9  C   UNL     1      35.101  30.901 -14.812  1.00  0.00     0.061 A 
ATOM     10  C   UNL     1      34.957  31.463 -13.434  1.00  0.00     0.069 C 
ATOM     11  N   UNL     1      34.224  31.318 -15.765  1.00  0.00    -0.259 NA
ATOM     12  C   UNL     1      34.317  30.835 -17.022  1.00  0.00     0.112 A 
ATOM     13  C   UNL     1      35.263  29.917 -17.447  1.00  0.00     0.031 A 
ATOM     14  C   UNL     1      36.180  29.471 -16.485  1.00  0.00     0.011 A 
ATOM     15  H   UNL     1      37.244  29.555 -13.497  1.00  0.00     0.167 HD
ENDROOT
BRANCH   1  16
ATOM     16  O   UNL     1      40.562  26.182 -15.468  1.00  0.00    -0.497 OA
ATOM     17  C   UNL     1      41.173  26.568 -14.243  1.00  0.00     0.278 C 
ENDBRANCH   1  16
TORSDOF 1
ENDMDL
MODEL 4
REMARK VINA RESULT:    -8.240      1.423      1.903
REMARK INTER + INTRA:          -8.763
REMARK INTER:                  -8.728
REMARK INTRA:                  -0.035
REMARK UNBOUND:                -0.041
REMARK SMILES COc1ccc2c(c1)[nH]c1c(C)nccc12
REMARK SMILES IDX 3 1 4 2 5 3 6 4 7 5 8 6 9 7 10 8 11 9 12 10 13 11 14 12
REMARK SMILES IDX 15 13 16 14 2 16 1 17
REMARK H PARENT 9 15
ROOT
ATOM      1  C   UNL     1      34.699  30.725 -16.657  1.00  0.00     0.120 A 
ATOM      2  C   UNL     1      34.960  31.057 -15.329  1.00  0.00     0.047 A 
ATOM      3  C   UNL     1      36.017  30.452 -14.631  1.00  0.00     0.015 A 
ATOM      4  C   UNL     1      36.827  29.498 -15.279  1.00  0.00     0.008 A 
ATOM      5  C   UNL     1      36.545  29.184 -16.606  1.00  0.00     0.050 A 
ATOM      6  C   UNL     1      35.494  29.779 -17.317  1.00  0.00     0.073 A 
ATOM      7  N   UNL     1      37.463  28.242 -17.002  1.00  0.00    -0.353 N 
ATOM      8  C   UNL     1      38.330  27.933 -15.979  1.00  0.00     0.068 A 
ATOM      9  C   UNL     1      39.406  27.040 -15.938  1.00  0.00     0.061 A 
ATOM     10  C   UNL     1      39.842  26.191 -17.089  1.00  0.00     0.069 C 
ATOM     11  N   UNL     1      40.100  26.938 -14.771  1.00  0.00    -0.259 NA
ATOM     12  C   UNL     1      39.739  27.685 -13.707  1.00  0.00     0.112 A 
ATOM     13  C   UNL     1      38.685  28.584 -13.694  1.00  0.00     0.031 A 
ATOM     14  C   UNL     1      37.953  28.709 -14.882  1.00  0.00     0.011 A 
ATOM     15  H   UNL     1      37.497  27.839 -17.900  1.00  0.00     0.167 HD
ENDROOT
BRANCH   1  16
ATOM     16  O   UNL     1      33.699  31.250 -17.432  1.00  0.00    -0.497 OA
ATOM     17  C   UNL     1      33.881  32.579 -17.907  1.00  0.00     0.278 C 
ENDBRANCH   1  16
TORSDOF 1
ENDMDL
MODEL 5
REMARK VINA RESULT:    -8.208      1.580      2.836
REMARK INTER + INTRA:          -8.729
REMARK INTER:                  -8.687
REMARK INTRA:                  -0.042
REMARK UNBOUND:                -0.041
REMARK SMILES COc1ccc2c(c1)[nH]c1c(C)nccc12
REMARK SMILES IDX 3 1 4 2 5 3 6 4 7 5 8 6 9 7 10 8 11 9 12 10 13 11 14 12
REMARK SMILES IDX 15 13 16 14 2 16 1 17
REMARK H PARENT 9 15
ROOT
ATOM      1  C   UNL     1      34.919  30.610 -16.083  1.00  0.00     0.120 A 
ATOM      2  C   UNL     1      35.123  30.103 -17.365  1.00  0.00     0.047 A 
ATOM      3  C   UNL     1      36.165  29.199 -17.624  1.00  0.00     0.015 A 
ATOM      4  C   UNL     1      37.016  28.796 -16.575  1.00  0.00     0.008 A 
ATOM      5  C   UNL     1      36.792  29.316 -15.304  1.00  0.00     0.050 A 
ATOM      6  C   UNL     1      35.756  30.220 -15.029  1.00  0.00     0.073 A 
ATOM      7  N   UNL     1      37.742  28.776 -14.472  1.00  0.00    -0.353 N 
ATOM      8  C   UNL     1      38.576  27.924 -15.159  1.00  0.00     0.068 A 
ATOM      9  C   UNL     1      39.666  27.168 -14.717  1.00  0.00     0.061 A 
ATOM     10  C   UNL     1      40.163  27.148 -13.307  1.00  0.00     0.069 C 
ATOM     11  N   UNL     1      40.318  26.400 -15.633  1.00  0.00    -0.259 NA
ATOM     12  C   UNL     1      39.903  26.390 -16.918  1.00  0.00     0.112 A 
ATOM     13  C   UNL     1      38.831  27.118 -17.408  1.00  0.00     0.031 A 
ATOM     14  C   UNL     1      38.142  27.917 -16.485  1.00  0.00     0.011 A 
ATOM     15  H   UNL     1      37.818  28.973 -13.510  1.00  0.00     0.167 HD
ENDROOT
BRANCH   1  16
ATOM     16  O   UNL     1      33.938  31.494 -15.717  1.00  0.00    -0.497 OA
ATOM     17  C   UNL     1      32.953  31.804 -16.695  1.00  0.00     0.278 C 
ENDBRANCH   1  16
TORSDOF 1
ENDMDL
MODEL 6
REMARK VINA RESULT:    -8.191      2.592      5.657
REMARK INTER + INTRA:          -8.711
REMARK INTER:                  -8.670
REMARK INTRA:                  -0.041
REMARK UNBOUND:                -0.041
REMARK SMILES COc1ccc2c(c1)[nH]c1c(C)nccc12
REMARK SMILES IDX 3 1 4 2 5 3 6 4 7 5 8 6 9 7 10 8 11 9 12 10 13 11 14 12
REMARK SMILES IDX 15 13 16 14 2 16 1 17
REMARK H PARENT 9 15
ROOT
ATOM      1  C   UNL     1      39.805  27.001 -15.136  1.00  0.00     0.120 A 
ATOM      2  C   UNL     1      39.620  27.683 -13.934  1.00  0.00     0.047 A 
ATOM      3  C   UNL     1      38.591  28.627 -13.795  1.00  0.00     0.015 A 
ATOM      4  C   UNL     1      37.733  28.891 -14.882  1.00  0.00     0.008 A 
ATOM      5  C   UNL     1      37.940  28.198 -16.071  1.00  0.00     0.050 A 
ATOM      6  C   UNL     1      38.962  27.252 -16.226  1.00  0.00     0.073 A 
ATOM      7  N   UNL     1      36.987  28.629 -16.962  1.00  0.00    -0.353 N 
ATOM      8  C   UNL     1      36.171  29.579 -16.392  1.00  0.00     0.068 A 
ATOM      9  C   UNL     1      35.084  30.280 -16.926  1.00  0.00     0.061 A 
ATOM     10  C   UNL     1      34.575  30.113 -18.322  1.00  0.00     0.069 C 
ATOM     11  N   UNL     1      34.450  31.175 -16.120  1.00  0.00    -0.259 NA
ATOM     12  C   UNL     1      34.879  31.359 -14.852  1.00  0.00     0.112 A 
ATOM     13  C   UNL     1      35.946  30.692 -14.275  1.00  0.00     0.031 A 
ATOM     14  C   UNL     1      36.617  29.764 -15.084  1.00  0.00     0.011 A 
ATOM     15  H   UNL     1      36.901  28.303 -17.886  1.00  0.00     0.167 HD
ENDROOT
BRANCH   1  16
ATOM     16  O   UNL     1      40.772  26.062 -15.383  1.00  0.00    -0.497 OA
ATOM     17  C   UNL     1      41.895  26.048 -14.510  1.00  0.00     0.278 C 
ENDBRANCH   1  16
TORSDOF 1
ENDMDL
MODEL 7
REMARK VINA RESULT:    -8.001      3.882      6.761
REMARK INTER + INTRA:          -8.511
REMARK INTER:                  -8.476
REMARK INTRA:                  -0.035
REMARK UNBOUND:                -0.041
REMARK SMILES COc1ccc2c(c1)[nH]c1c(C)nccc12
REMARK SMILES IDX 3 1 4 2 5 3 6 4 7 5 8 6 9 7 10 8 11 9 12 10 13 11 14 12
REMARK SMILES IDX 15 13 16 14 2 16 1 17
REMARK H PARENT 9 15
ROOT
ATOM      1  C   UNL     1      44.534  25.507 -13.529  1.00  0.00     0.120 A 
ATOM      2  C   UNL     1      44.194  26.380 -12.498  1.00  0.00     0.047 A 
ATOM      3  C   UNL     1      42.958  27.045 -12.496  1.00  0.00     0.015 A 
ATOM      4  C   UNL     1      42.047  26.828 -13.550  1.00  0.00     0.008 A 
ATOM      5  C   UNL     1      42.411  25.952 -14.568  1.00  0.00     0.050 A 
ATOM      6  C   UNL     1      43.640  25.280 -14.584  1.00  0.00     0.073 A 
ATOM      7  N   UNL     1      41.367  25.914 -15.462  1.00  0.00    -0.353 N 
ATOM      8  C   UNL     1      40.340  26.736 -15.058  1.00  0.00     0.068 A 
ATOM      9  C   UNL     1      39.102  27.002 -15.654  1.00  0.00     0.061 A 
ATOM     10  C   UNL     1      38.636  26.394 -16.938  1.00  0.00     0.069 C 
ATOM     11  N   UNL     1      38.269  27.872 -15.021  1.00  0.00    -0.259 NA
ATOM     12  C   UNL     1      38.652  28.445 -13.860  1.00  0.00     0.112 A 
ATOM     13  C   UNL     1      39.863  28.217 -13.229  1.00  0.00     0.031 A 
ATOM     14  C   UNL     1      40.740  27.324 -13.859  1.00  0.00     0.011 A 
ATOM     15  H   UNL     1      41.356  25.371 -16.283  1.00  0.00     0.167 HD
ENDROOT
BRANCH   1  16
ATOM     16  O   UNL     1      45.707  24.807 -13.632  1.00  0.00    -0.497 OA
ATOM     17  C   UNL     1      46.878  25.554 -13.942  1.00  0.00     0.278 C 
ENDBRANCH   1  16
TORSDOF 1
ENDMDL
MODEL 8
REMARK VINA RESULT:    -7.801      2.800      5.977
REMARK INTER + INTRA:          -8.298
REMARK INTER:                  -8.259
REMARK INTRA:                  -0.040
REMARK UNBOUND:                -0.041
REMARK SMILES COc1ccc2c(c1)[nH]c1c(C)nccc12
REMARK SMILES IDX 3 1 4 2 5 3 6 4 7 5 8 6 9 7 10 8 11 9 12 10 13 11 14 12
REMARK SMILES IDX 15 13 16 14 2 16 1 17
REMARK H PARENT 9 15
ROOT
ATOM      1  C   UNL     1      40.171  26.810 -14.372  1.00  0.00     0.120 A 
ATOM      2  C   UNL     1      39.839  26.412 -15.665  1.00  0.00     0.047 A 
ATOM      3  C   UNL     1      38.812  27.056 -16.374  1.00  0.00     0.015 A 
ATOM      4  C   UNL     1      38.107  28.118 -15.772  1.00  0.00     0.008 A 
ATOM      5  C   UNL     1      38.458  28.495 -14.479  1.00  0.00     0.050 A 
ATOM      6  C   UNL     1      39.481  27.864 -13.758  1.00  0.00     0.073 A 
ATOM      7  N   UNL     1      37.635  29.537 -14.124  1.00  0.00    -0.353 N 
ATOM      8  C   UNL     1      36.763  29.847 -15.142  1.00  0.00     0.068 A 
ATOM      9  C   UNL     1      35.764  30.824 -15.215  1.00  0.00     0.061 A 
ATOM     10  C   UNL     1      35.438  31.782 -14.114  1.00  0.00     0.069 C 
ATOM     11  N   UNL     1      35.042  30.906 -16.366  1.00  0.00    -0.259 NA
ATOM     12  C   UNL     1      35.303  30.059 -17.384  1.00  0.00     0.112 A 
ATOM     13  C   UNL     1      36.278  29.077 -17.365  1.00  0.00     0.031 A 
ATOM     14  C   UNL     1      37.037  28.970 -16.191  1.00  0.00     0.011 A 
ATOM     15  H   UNL     1      37.665  30.000 -13.256  1.00  0.00     0.167 HD
ENDROOT
BRANCH   1  16
ATOM     16  O   UNL     1      41.151  26.256 -13.590  1.00  0.00    -0.497 OA
ATOM     17  C   UNL     1      42.445  26.841 -13.668  1.00  0.00     0.278 C 
ENDBRANCH   1  16
TORSDOF 1
ENDMDL
MODEL 9
REMARK VINA RESULT:    -7.454      2.806      5.663
REMARK INTER + INTRA:          -7.931
REMARK INTER:                  -7.896
REMARK INTRA:                  -0.035
REMARK UNBOUND:                -0.041
REMARK SMILES COc1ccc2c(c1)[nH]c1c(C)nccc12
REMARK SMILES IDX 3 1 4 2 5 3 6 4 7 5 8 6 9 7 10 8 11 9 12 10 13 11 14 12
REMARK SMILES IDX 15 13 16 14 2 16 1 17
REMARK H PARENT 9 15
ROOT
ATOM      1  C   UNL     1      41.648  26.841 -13.001  1.00  0.00     0.120 A 
ATOM      2  C   UNL     1      40.937  27.823 -12.314  1.00  0.00     0.047 A 
ATOM      3  C   UNL     1      39.807  28.428 -12.887  1.00  0.00     0.015 A 
ATOM      4  C   UNL     1      39.384  28.039 -14.174  1.00  0.00     0.008 A 
ATOM      5  C   UNL     1      40.112  27.057 -14.840  1.00  0.00     0.050 A 
ATOM      6  C   UNL     1      41.241  26.443 -14.282  1.00  0.00     0.073 A 
ATOM      7  N   UNL     1      39.506  26.859 -16.058  1.00  0.00    -0.353 N 
ATOM      8  C   UNL     1      38.411  27.680 -16.204  1.00  0.00     0.068 A 
ATOM      9  C   UNL     1      37.512  27.813 -17.268  1.00  0.00     0.061 A 
ATOM     10  C   UNL     1      37.584  27.027 -18.537  1.00  0.00     0.069 C 
ATOM     11  N   UNL     1      36.505  28.720 -17.136  1.00  0.00    -0.259 NA
ATOM     12  C   UNL     1      36.404  29.452 -16.006  1.00  0.00     0.112 A 
ATOM     13  C   UNL     1      37.265  29.360 -14.926  1.00  0.00     0.031 A 
ATOM     14  C   UNL     1      38.311  28.434 -15.035  1.00  0.00     0.011 A 
ATOM     15  H   UNL     1      39.814  26.216 -16.736  1.00  0.00     0.167 HD
ENDROOT
BRANCH   1  16
ATOM     16  O   UNL     1      42.759  26.187 -12.541  1.00  0.00    -0.497 OA
ATOM     17  C   UNL     1      44.005  26.860 -12.672  1.00  0.00     0.278 C 
ENDBRANCH   1  16
TORSDOF 1
ENDMDL
