MODEL 1
REMARK VINA RESULT:    -9.786      0.000      0.000
REMARK INTER + INTRA:         -11.484
REMARK INTER:                 -11.788
REMARK INTRA:                   0.304
REMARK UNBOUND:                 0.304
REMARK SMILES O=c1c(O)c(-c2ccc(O)c(O)c2)oc2cc(O)cc(O)c12
REMARK SMILES IDX 1 1 2 2 3 3 5 4 14 5 15 6 16 7 17 8 19 9 20 10 22 11 4 12
REMARK SMILES IDX 6 14 7 15 13 16 8 17 11 18 9 19 12 20 10 22 21 24 18 26
REMARK H PARENT 4 13 12 21 10 23 21 25 18 27
ROOT
ATOM      1  O   UNL     1      39.912  26.216 -17.518  1.00  0.00    -0.285 OA
ATOM      2  C   UNL     1      39.397  26.903 -16.638  1.00  0.00     0.238 A 
ATOM      3  C   UNL     1      38.198  27.722 -16.929  1.00  0.00     0.208 A 
ATOM      4  C   UNL     1      37.664  28.457 -15.935  1.00  0.00     0.180 A 
ATOM      5  O   UNL     1      38.170  28.490 -14.640  1.00  0.00    -0.452 OA
ATOM      6  C   UNL     1      39.285  27.748 -14.343  1.00  0.00     0.146 A 
ATOM      7  C   UNL     1      39.764  27.820 -13.035  1.00  0.00     0.094 A 
ATOM      8  C   UNL     1      40.892  27.085 -12.677  1.00  0.00     0.123 A 
ATOM      9  C   UNL     1      41.550  26.281 -13.604  1.00  0.00     0.093 A 
ATOM     10  C   UNL     1      41.067  26.215 -14.908  1.00  0.00     0.134 A 
ATOM     11  C   UNL     1      39.934  26.948 -15.277  1.00  0.00     0.111 A 
ENDROOT
BRANCH   3  12
ATOM     12  O   UNL     1      37.691  27.660 -18.214  1.00  0.00    -0.502 OA
ATOM     13  H   UNL     1      37.878  28.346 -18.825  1.00  0.00     0.293 HD
ENDBRANCH   3  12
BRANCH   4  14
ATOM     14  C   UNL     1      36.457  29.296 -16.102  1.00  0.00     0.025 A 
ATOM     15  C   UNL     1      35.881  29.917 -14.977  1.00  0.00     0.016 A 
ATOM     16  C   UNL     1      35.888  29.526 -17.366  1.00  0.00     0.062 A 
ATOM     17  C   UNL     1      34.754  30.735 -15.102  1.00  0.00     0.051 A 
ATOM     18  C   UNL     1      34.763  30.339 -17.483  1.00  0.00     0.158 A 
ATOM     19  C   UNL     1      34.205  30.937 -16.357  1.00  0.00     0.157 A 
BRANCH  18  20
ATOM     20  O   UNL     1      34.171  30.582 -18.692  1.00  0.00    -0.504 OA
ATOM     21  H   UNL     1      33.775  29.879 -19.169  1.00  0.00     0.293 HD
ENDBRANCH  18  20
BRANCH  19  22
ATOM     22  O   UNL     1      33.104  31.735 -16.484  1.00  0.00    -0.504 OA
ATOM     23  H   UNL     1      32.729  32.138 -15.727  1.00  0.00     0.293 HD
ENDBRANCH  19  22
ENDBRANCH   4  14
BRANCH  10  24
ATOM     24  O   UNL     1      41.751  25.410 -15.778  1.00  0.00    -0.507 OA
ATOM     25  H   UNL     1      42.132  24.609 -15.475  1.00  0.00     0.293 HD
ENDBRANCH  10  24
BRANCH   8  26
ATOM     26  O   UNL     1      41.327  27.183 -11.389  1.00  0.00    -0.508 OA
ATOM     27  H   UNL     1      41.708  26.439 -10.965  1.00  0.00     0.293 HD
ENDBRANCH   8  26
TORSDOF 6
ENDMDL
MODEL 2
REMARK VINA RESULT:    -8.810      1.066      6.667
REMARK INTER + INTRA:         -10.308
REMARK INTER:                 -10.575
REMARK INTRA:                   0.267
REMARK UNBOUND:                 0.304
REMARK SMILES O=c1c(O)c(-c2ccc(O)c(O)c2)oc2cc(O)cc(O)c12
REMARK SMILES IDX 1 1 2 2 3 3 5 4 14 5 15 6 16 7 17 8 19 9 20 10 22 11 4 12
REMARK SMILES IDX 6 14 7 15 13 16 8 17 11 18 9 19 12 20 10 22 21 24 18 26
REMARK H PARENT 4 13 12 21 10 23 21 25 18 27
ROOT
ATOM      1  O   UNL     1      36.825  27.352 -18.555  1.00  0.00    -0.285 OA
ATOM      2  C   UNL     1      37.136  27.921 -17.510  1.00  0.00     0.238 A 
ATOM      3  C   UNL     1      38.219  27.382 -16.655  1.00  0.00     0.208 A 
ATOM      4  C   UNL     1      38.529  28.038 -15.521  1.00  0.00     0.180 A 
ATOM      5  O   UNL     1      37.895  29.203 -15.103  1.00  0.00    -0.452 OA
ATOM      6  C   UNL     1      36.882  29.721 -15.869  1.00  0.00     0.146 A 
ATOM      7  C   UNL     1      36.267  30.884 -15.407  1.00  0.00     0.094 A 
ATOM      8  C   UNL     1      35.235  31.454 -16.147  1.00  0.00     0.123 A 
ATOM      9  C   UNL     1      34.806  30.882 -17.342  1.00  0.00     0.093 A 
ATOM     10  C   UNL     1      35.424  29.721 -17.798  1.00  0.00     0.134 A 
ATOM     11  C   UNL     1      36.462  29.140 -17.062  1.00  0.00     0.111 A 
ENDROOT
BRANCH   3  12
ATOM     12  O   UNL     1      38.857  26.238 -17.096  1.00  0.00    -0.502 OA
ATOM     13  H   UNL     1      39.687  25.994 -16.734  1.00  0.00     0.293 HD
ENDBRANCH   3  12
BRANCH   4  14
ATOM     14  C   UNL     1      39.603  27.606 -14.599  1.00  0.00     0.025 A 
ATOM     15  C   UNL     1      39.620  28.088 -13.276  1.00  0.00     0.016 A 
ATOM     16  C   UNL     1      40.593  26.691 -14.998  1.00  0.00     0.062 A 
ATOM     17  C   UNL     1      40.607  27.683 -12.374  1.00  0.00     0.051 A 
ATOM     18  C   UNL     1      41.576  26.296 -14.095  1.00  0.00     0.158 A 
ATOM     19  C   UNL     1      41.578  26.789 -12.793  1.00  0.00     0.157 A 
BRANCH  18  20
ATOM     20  O   UNL     1      42.564  25.416 -14.442  1.00  0.00    -0.504 OA
ATOM     21  H   UNL     1      42.400  24.493 -14.417  1.00  0.00     0.293 HD
ENDBRANCH  18  20
BRANCH  19  22
ATOM     22  O   UNL     1      42.545  26.391 -11.915  1.00  0.00    -0.504 OA
ATOM     23  H   UNL     1      42.886  26.998 -11.288  1.00  0.00     0.293 HD
ENDBRANCH  19  22
ENDBRANCH   4  14
BRANCH  10  24
ATOM     24  O   UNL     1      34.964  29.201 -18.978  1.00  0.00    -0.507 OA
ATOM     25  H   UNL     1      35.207  28.332 -19.232  1.00  0.00     0.293 HD
ENDBRANCH  10  24
BRANCH   8  26
ATOM     26  O   UNL     1      34.661  32.591 -15.659  1.00  0.00    -0.508 OA
ATOM     27  H   UNL     1      34.741  33.396 -16.132  1.00  0.00     0.293 HD
ENDBRANCH   8  26
TORSDOF 6
ENDMDL
MODEL 3
REMARK VINA RESULT:    -8.778      1.625      2.432
REMARK INTER + INTRA:         -10.270
REMARK INTER:                 -10.165
REMARK INTRA:                  -0.105
REMARK UNBOUND:                 0.304
REMARK SMILES O=c1c(O)c(-c2ccc(O)c(O)c2)oc2cc(O)cc(O)c12
REMARK SMILES IDX 1 1 2 2 3 3 5 4 14 5 15 6 16 7 17 8 19 9 20 10 22 11 4 12
REMARK SMILES IDX 6 14 7 15 13 16 8 17 11 18 9 19 12 20 10 22 21 24 18 26
REMARK H PARENT 4 13 12 21 10 23 21 25 18 27
ROOT
ATOM      1  O   UNL     1      37.524  26.817 -18.299  1.00  0.00    -0.285 OA
ATOM      2  C   UNL     1      37.362  27.744 -17.508  1.00  0.00     0.238 A 
ATOM      3  C   UNL     1      36.399  28.829 -17.809  1.00  0.00     0.208 A 
ATOM      4  C   UNL     1      36.250  29.823 -16.915  1.00  0.00     0.180 A 
ATOM      5  O   UNL     1      36.944  29.892 -15.712  1.00  0.00    -0.452 OA
ATOM      6  C   UNL     1      37.848  28.907 -15.409  1.00  0.00     0.146 A 
ATOM      7  C   UNL     1      38.530  29.022 -14.198  1.00  0.00     0.094 A 
ATOM      8  C   UNL     1      39.458  28.048 -13.838  1.00  0.00     0.123 A 
ATOM      9  C   UNL     1      39.718  26.961 -14.670  1.00  0.00     0.093 A 
ATOM     10  C   UNL     1      39.035  26.852 -15.877  1.00  0.00     0.134 A 
ATOM     11  C   UNL     1      38.100  27.825 -16.247  1.00  0.00     0.111 A 
ENDROOT
BRANCH   3  12
ATOM     12  O   UNL     1      35.698  28.734 -18.997  1.00  0.00    -0.502 OA
ATOM     13  H   UNL     1      36.111  28.965 -19.806  1.00  0.00     0.293 HD
ENDBRANCH   3  12
BRANCH   4  14
ATOM     14  C   UNL     1      35.305  30.948 -17.098  1.00  0.00     0.025 A 
ATOM     15  C   UNL     1      35.776  32.272 -17.018  1.00  0.00     0.016 A 
ATOM     16  C   UNL     1      33.947  30.730 -17.390  1.00  0.00     0.062 A 
ATOM     17  C   UNL     1      34.915  33.356 -17.208  1.00  0.00     0.051 A 
ATOM     18  C   UNL     1      33.095  31.815 -17.574  1.00  0.00     0.158 A 
ATOM     19  C   UNL     1      33.580  33.117 -17.485  1.00  0.00     0.157 A 
BRANCH  18  20
ATOM     20  O   UNL     1      31.765  31.650 -17.851  1.00  0.00    -0.504 OA
ATOM     21  H   UNL     1      31.119  32.033 -17.290  1.00  0.00     0.293 HD
ENDBRANCH  18  20
BRANCH  19  22
ATOM     22  O   UNL     1      32.736  34.173 -17.671  1.00  0.00    -0.504 OA
ATOM     23  H   UNL     1      33.070  35.048 -17.652  1.00  0.00     0.293 HD
ENDBRANCH  19  22
ENDBRANCH   4  14
BRANCH  10  24
ATOM     24  O   UNL     1      39.327  25.765 -16.655  1.00  0.00    -0.507 OA
ATOM     25  H   UNL     1      39.270  24.902 -16.295  1.00  0.00     0.293 HD
ENDBRANCH  10  24
BRANCH   8  26
ATOM     26  O   UNL     1      40.102  28.198 -12.646  1.00  0.00    -0.508 OA
ATOM     27  H   UNL     1      41.025  28.048 -12.590  1.00  0.00     0.293 HD
ENDBRANCH   8  26
TORSDOF 6
ENDMDL
MODEL 4
REMARK VINA RESULT:    -8.762      1.417      6.530
REMARK INTER + INTRA:         -10.250
REMARK INTER:                 -10.563
REMARK INTRA:                   0.313
REMARK UNBOUND:                 0.304
REMARK SMILES O=c1c(O)c(-c2ccc(O)c(O)c2)oc2cc(O)cc(O)c12
REMARK SMILES IDX 1 1 2 2 3 3 5 4 14 5 15 6 16 7 17 8 19 9 20 10 22 11 4 12
REMARK SMILES IDX 6 14 7 15 13 16 8 17 11 18 9 19 12 20 10 22 21 24 18 26
REMARK H PARENT 4 13 12 21 10 23 21 25 18 27
ROOT
ATOM      1  O   UNL     1      35.391  29.239 -18.316  1.00  0.00    -0.285 OA
ATOM      2  C   UNL     1      36.040  29.168 -17.274  1.00  0.00     0.238 A 
ATOM      3  C   UNL     1      37.225  28.283 -17.186  1.00  0.00     0.208 A 
ATOM      4  C   UNL     1      37.909  28.238 -16.029  1.00  0.00     0.180 A 
ATOM      5  O   UNL     1      37.574  28.981 -14.902  1.00  0.00    -0.452 OA
ATOM      6  C   UNL     1      36.477  29.803 -14.950  1.00  0.00     0.146 A 
ATOM      7  C   UNL     1      36.172  30.522 -13.795  1.00  0.00     0.094 A 
ATOM      8  C   UNL     1      35.070  31.373 -13.788  1.00  0.00     0.123 A 
ATOM      9  C   UNL     1      34.267  31.519 -14.917  1.00  0.00     0.093 A 
ATOM     10  C   UNL     1      34.578  30.798 -16.067  1.00  0.00     0.134 A 
ATOM     11  C   UNL     1      35.683  29.940 -16.084  1.00  0.00     0.111 A 
ENDROOT
BRANCH   3  12
ATOM     12  O   UNL     1      37.561  27.569 -18.322  1.00  0.00    -0.502 OA
ATOM     13  H   UNL     1      37.061  26.815 -18.567  1.00  0.00     0.293 HD
ENDBRANCH   3  12
BRANCH   4  14
ATOM     14  C   UNL     1      39.118  27.408 -15.830  1.00  0.00     0.025 A 
ATOM     15  C   UNL     1      39.680  27.294 -14.544  1.00  0.00     0.016 A 
ATOM     16  C   UNL     1      39.703  26.691 -16.889  1.00  0.00     0.062 A 
ATOM     17  C   UNL     1      40.808  26.500 -14.318  1.00  0.00     0.051 A 
ATOM     18  C   UNL     1      40.829  25.906 -16.656  1.00  0.00     0.158 A 
ATOM     19  C   UNL     1      41.373  25.813 -15.379  1.00  0.00     0.157 A 
BRANCH  18  20
ATOM     20  O   UNL     1      41.436  25.200 -17.659  1.00  0.00    -0.504 OA
ATOM     21  H   UNL     1      41.728  24.323 -17.504  1.00  0.00     0.293 HD
ENDBRANCH  18  20
BRANCH  19  22
ATOM     22  O   UNL     1      42.475  25.037 -15.162  1.00  0.00    -0.504 OA
ATOM     23  H   UNL     1      42.400  24.104 -15.173  1.00  0.00     0.293 HD
ENDBRANCH  19  22
ENDBRANCH   4  14
BRANCH  10  24
ATOM     24  O   UNL     1      33.757  30.979 -17.147  1.00  0.00    -0.507 OA
ATOM     25  H   UNL     1      34.069  30.787 -18.010  1.00  0.00     0.293 HD
ENDBRANCH  10  24
BRANCH   8  26
ATOM     26  O   UNL     1      34.807  32.057 -12.639  1.00  0.00    -0.508 OA
ATOM     27  H   UNL     1      34.603  32.971 -12.673  1.00  0.00     0.293 HD
ENDBRANCH   8  26
TORSDOF 6
ENDMDL
MODEL 5
REMARK VINA RESULT:    -8.430      1.139      6.766
REMARK INTER + INTRA:          -9.850
REMARK INTER:                  -9.993
REMARK INTRA:                   0.143
REMARK UNBOUND:                 0.304
REMARK SMILES O=c1c(O)c(-c2ccc(O)c(O)c2)oc2cc(O)cc(O)c12
REMARK SMILES IDX 1 1 2 2 3 3 5 4 14 5 15 6 16 7 17 8 19 9 20 10 22 11 4 12
REMARK SMILES IDX 6 14 7 15 13 16 8 17 11 18 9 19 12 20 10 22 21 24 18 26
REMARK H PARENT 4 13 12 21 10 23 21 25 18 27
ROOT
ATOM      1  O   UNL     1      37.790  27.164 -18.222  1.00  0.00    -0.285 OA
ATOM      2  C   UNL     1      37.939  27.636 -17.097  1.00  0.00     0.238 A 
ATOM      3  C   UNL     1      39.028  27.152 -16.218  1.00  0.00     0.208 A 
ATOM      4  C   UNL     1      39.158  27.697 -14.995  1.00  0.00     0.180 A 
ATOM      5  O   UNL     1      38.330  28.701 -14.503  1.00  0.00    -0.452 OA
ATOM      6  C   UNL     1      37.308  29.164 -15.291  1.00  0.00     0.146 A 
ATOM      7  C   UNL     1      36.496  30.163 -14.755  1.00  0.00     0.094 A 
ATOM      8  C   UNL     1      35.444  30.672 -15.512  1.00  0.00     0.123 A 
ATOM      9  C   UNL     1      35.188  30.198 -16.797  1.00  0.00     0.093 A 
ATOM     10  C   UNL     1      36.002  29.201 -17.326  1.00  0.00     0.134 A 
ATOM     11  C   UNL     1      37.062  28.684 -16.574  1.00  0.00     0.111 A 
ENDROOT
BRANCH   3  12
ATOM     12  O   UNL     1      39.859  26.171 -16.729  1.00  0.00    -0.502 OA
ATOM     13  H   UNL     1      40.451  26.374 -17.426  1.00  0.00     0.293 HD
ENDBRANCH   3  12
BRANCH   4  14
ATOM     14  C   UNL     1      40.219  27.309 -14.038  1.00  0.00     0.025 A 
ATOM     15  C   UNL     1      41.495  26.960 -14.518  1.00  0.00     0.016 A 
ATOM     16  C   UNL     1      39.998  27.317 -12.650  1.00  0.00     0.062 A 
ATOM     17  C   UNL     1      42.525  26.611 -13.641  1.00  0.00     0.051 A 
ATOM     18  C   UNL     1      41.028  26.963 -11.782  1.00  0.00     0.158 A 
ATOM     19  C   UNL     1      42.280  26.615 -12.278  1.00  0.00     0.157 A 
BRANCH  18  20
ATOM     20  O   UNL     1      40.854  26.947 -10.425  1.00  0.00    -0.504 OA
ATOM     21  H   UNL     1      39.993  27.020 -10.062  1.00  0.00     0.293 HD
ENDBRANCH  18  20
BRANCH  19  22
ATOM     22  O   UNL     1      43.284  26.273 -11.417  1.00  0.00    -0.504 OA
ATOM     23  H   UNL     1      44.176  26.429 -11.654  1.00  0.00     0.293 HD
ENDBRANCH  19  22
ENDBRANCH   4  14
BRANCH  10  24
ATOM     24  O   UNL     1      35.708  28.773 -18.593  1.00  0.00    -0.507 OA
ATOM     25  H   UNL     1      35.191  28.001 -18.718  1.00  0.00     0.293 HD
ENDBRANCH  10  24
BRANCH   8  26
ATOM     26  O   UNL     1      34.675  31.647 -14.950  1.00  0.00    -0.508 OA
ATOM     27  H   UNL     1      35.001  32.141 -14.224  1.00  0.00     0.293 HD
ENDBRANCH   8  26
TORSDOF 6
ENDMDL
MODEL 6
REMARK VINA RESULT:    -8.215      1.407      3.304
REMARK INTER + INTRA:          -9.591
REMARK INTER:                  -9.849
REMARK INTRA:                   0.258
REMARK UNBOUND:                 0.304
REMARK SMILES O=c1c(O)c(-c2ccc(O)c(O)c2)oc2cc(O)cc(O)c12
REMARK SMILES IDX 1 1 2 2 3 3 5 4 14 5 15 6 16 7 17 8 19 9 20 10 22 11 4 12
REMARK SMILES IDX 6 14 7 15 13 16 8 17 11 18 9 19 12 20 10 22 21 24 18 26
REMARK H PARENT 4 13 12 21 10 23 21 25 18 27
ROOT
ATOM      1  O   UNL     1      38.765  28.851 -12.918  1.00  0.00    -0.285 OA
ATOM      2  C   UNL     1      38.359  28.696 -14.068  1.00  0.00     0.238 A 
ATOM      3  C   UNL     1      37.158  29.421 -14.545  1.00  0.00     0.208 A 
ATOM      4  C   UNL     1      36.749  29.225 -15.812  1.00  0.00     0.180 A 
ATOM      5  O   UNL     1      37.394  28.382 -16.711  1.00  0.00    -0.452 OA
ATOM      6  C   UNL     1      38.503  27.691 -16.296  1.00  0.00     0.146 A 
ATOM      7  C   UNL     1      39.111  26.850 -17.227  1.00  0.00     0.094 A 
ATOM      8  C   UNL     1      40.243  26.125 -16.861  1.00  0.00     0.123 A 
ATOM      9  C   UNL     1      40.777  26.227 -15.578  1.00  0.00     0.093 A 
ATOM     10  C   UNL     1      40.165  27.069 -14.654  1.00  0.00     0.134 A 
ATOM     11  C   UNL     1      39.028  27.801 -15.013  1.00  0.00     0.111 A 
ENDROOT
BRANCH   3  12
ATOM     12  O   UNL     1      36.542  30.274 -13.648  1.00  0.00    -0.502 OA
ATOM     13  H   UNL     1      35.865  30.853 -13.939  1.00  0.00     0.293 HD
ENDBRANCH   3  12
BRANCH   4  14
ATOM     14  C   UNL     1      35.578  29.908 -16.404  1.00  0.00     0.025 A 
ATOM     15  C   UNL     1      35.407  29.911 -17.801  1.00  0.00     0.016 A 
ATOM     16  C   UNL     1      34.601  30.525 -15.602  1.00  0.00     0.062 A 
ATOM     17  C   UNL     1      34.299  30.527 -18.391  1.00  0.00     0.051 A 
ATOM     18  C   UNL     1      33.503  31.141 -16.197  1.00  0.00     0.158 A 
ATOM     19  C   UNL     1      33.357  31.138 -17.581  1.00  0.00     0.157 A 
BRANCH  18  20
ATOM     20  O   UNL     1      32.535  31.761 -15.457  1.00  0.00    -0.504 OA
ATOM     21  H   UNL     1      31.937  32.354 -15.870  1.00  0.00     0.293 HD
ENDBRANCH  18  20
BRANCH  19  22
ATOM     22  O   UNL     1      32.274  31.741 -18.154  1.00  0.00    -0.504 OA
ATOM     23  H   UNL     1      31.981  31.470 -19.001  1.00  0.00     0.293 HD
ENDBRANCH  19  22
ENDBRANCH   4  14
BRANCH  10  24
ATOM     24  O   UNL     1      40.731  27.132 -13.409  1.00  0.00    -0.507 OA
ATOM     25  H   UNL     1      40.393  27.729 -12.771  1.00  0.00     0.293 HD
ENDBRANCH  10  24
BRANCH   8  26
ATOM     26  O   UNL     1      40.806  25.315 -17.801  1.00  0.00    -0.508 OA
ATOM     27  H   UNL     1      40.532  24.422 -17.875  1.00  0.00     0.293 HD
ENDBRANCH   8  26
TORSDOF 6
ENDMDL
MODEL 7
REMARK VINA RESULT:    -8.082      1.840      3.637
REMARK INTER + INTRA:          -9.431
REMARK INTER:                  -9.113
REMARK INTRA:                  -0.317
REMARK UNBOUND:                 0.304
REMARK SMILES O=c1c(O)c(-c2ccc(O)c(O)c2)oc2cc(O)cc(O)c12
REMARK SMILES IDX 1 1 2 2 3 3 5 4 14 5 15 6 16 7 17 8 19 9 20 10 22 11 4 12
REMARK SMILES IDX 6 14 7 15 13 16 8 17 11 18 9 19 12 20 10 22 21 24 18 26
REMARK H PARENT 4 13 12 21 10 23 21 25 18 27
ROOT
ATOM      1  O   UNL     1      38.018  29.220 -13.000  1.00  0.00    -0.285 OA
ATOM      2  C   UNL     1      37.705  29.223 -14.189  1.00  0.00     0.238 A 
ATOM      3  C   UNL     1      36.671  30.156 -14.692  1.00  0.00     0.208 A 
ATOM      4  C   UNL     1      36.361  30.128 -16.001  1.00  0.00     0.180 A 
ATOM      5  O   UNL     1      36.962  29.275 -16.920  1.00  0.00    -0.452 OA
ATOM      6  C   UNL     1      37.918  28.393 -16.483  1.00  0.00     0.146 A 
ATOM      7  C   UNL     1      38.486  27.549 -17.437  1.00  0.00     0.094 A 
ATOM      8  C   UNL     1      39.463  26.636 -17.049  1.00  0.00     0.123 A 
ATOM      9  C   UNL     1      39.882  26.551 -15.723  1.00  0.00     0.093 A 
ATOM     10  C   UNL     1      39.310  27.396 -14.776  1.00  0.00     0.134 A 
ATOM     11  C   UNL     1      38.328  28.318 -15.156  1.00  0.00     0.111 A 
ENDROOT
BRANCH   3  12
ATOM     12  O   UNL     1      36.100  31.016 -13.771  1.00  0.00    -0.502 OA
ATOM     13  H   UNL     1      36.325  31.926 -13.777  1.00  0.00     0.293 HD
ENDBRANCH   3  12
BRANCH   4  14
ATOM     14  C   UNL     1      35.361  31.026 -16.620  1.00  0.00     0.025 A 
ATOM     15  C   UNL     1      33.991  30.723 -16.507  1.00  0.00     0.016 A 
ATOM     16  C   UNL     1      35.740  32.202 -17.289  1.00  0.00     0.062 A 
ATOM     17  C   UNL     1      33.018  31.561 -17.060  1.00  0.00     0.051 A 
ATOM     18  C   UNL     1      34.766  33.030 -17.842  1.00  0.00     0.158 A 
ATOM     19  C   UNL     1      33.417  32.709 -17.724  1.00  0.00     0.157 A 
BRANCH  18  20
ATOM     20  O   UNL     1      35.090  34.179 -18.510  1.00  0.00    -0.504 OA
ATOM     21  H   UNL     1      35.343  34.944 -18.031  1.00  0.00     0.293 HD
ENDBRANCH  18  20
BRANCH  19  22
ATOM     22  O   UNL     1      32.470  33.530 -18.267  1.00  0.00    -0.504 OA
ATOM     23  H   UNL     1      32.569  34.459 -18.209  1.00  0.00     0.293 HD
ENDBRANCH  19  22
ENDBRANCH   4  14
BRANCH  10  24
ATOM     24  O   UNL     1      39.758  27.272 -13.489  1.00  0.00    -0.507 OA
ATOM     25  H   UNL     1      39.935  26.422 -13.135  1.00  0.00     0.293 HD
ENDBRANCH  10  24
BRANCH   8  26
ATOM     26  O   UNL     1      39.993  25.830 -18.012  1.00  0.00    -0.508 OA
ATOM     27  H   UNL     1      40.623  25.176 -17.781  1.00  0.00     0.293 HD
ENDBRANCH   8  26
TORSDOF 6
ENDMDL
MODEL 8
REMARK VINA RESULT:    -8.025      2.663      8.303
REMARK INTER + INTRA:          -9.362
REMARK INTER:                  -9.255
REMARK INTRA:                  -0.107
REMARK UNBOUND:                 0.304
REMARK SMILES O=c1c(O)c(-c2ccc(O)c(O)c2)oc2cc(O)cc(O)c12
REMARK SMILES IDX 1 1 2 2 3 3 5 4 14 5 15 6 16 7 17 8 19 9 20 10 22 11 4 12
REMARK SMILES IDX 6 14 7 15 13 16 8 17 11 18 9 19 12 20 10 22 21 24 18 26
REMARK H PARENT 4 13 12 21 10 23 21 25 18 27
ROOT
ATOM      1  O   UNL     1      39.218  28.359 -12.797  1.00  0.00    -0.285 OA
ATOM      2  C   UNL     1      39.875  27.746 -13.636  1.00  0.00     0.238 A 
ATOM      3  C   UNL     1      41.241  27.268 -13.318  1.00  0.00     0.208 A 
ATOM      4  C   UNL     1      41.924  26.597 -14.264  1.00  0.00     0.180 A 
ATOM      5  O   UNL     1      41.421  26.318 -15.530  1.00  0.00    -0.452 OA
ATOM      6  C   UNL     1      40.163  26.755 -15.857  1.00  0.00     0.146 A 
ATOM      7  C   UNL     1      39.703  26.462 -17.140  1.00  0.00     0.094 A 
ATOM      8  C   UNL     1      38.431  26.880 -17.525  1.00  0.00     0.123 A 
ATOM      9  C   UNL     1      37.611  27.587 -16.649  1.00  0.00     0.093 A 
ATOM     10  C   UNL     1      38.077  27.877 -15.369  1.00  0.00     0.134 A 
ATOM     11  C   UNL     1      39.353  27.460 -14.973  1.00  0.00     0.111 A 
ENDROOT
BRANCH   3  12
ATOM     12  O   UNL     1      41.718  27.531 -12.047  1.00  0.00    -0.502 OA
ATOM     13  H   UNL     1      41.124  27.588 -11.325  1.00  0.00     0.293 HD
ENDBRANCH   3  12
BRANCH   4  14
ATOM     14  C   UNL     1      43.285  26.055 -14.055  1.00  0.00     0.025 A 
ATOM     15  C   UNL     1      43.556  24.712 -14.375  1.00  0.00     0.016 A 
ATOM     16  C   UNL     1      44.334  26.861 -13.578  1.00  0.00     0.062 A 
ATOM     17  C   UNL     1      44.836  24.175 -14.212  1.00  0.00     0.051 A 
ATOM     18  C   UNL     1      45.606  26.318 -13.413  1.00  0.00     0.158 A 
ATOM     19  C   UNL     1      45.850  24.985 -13.730  1.00  0.00     0.157 A 
BRANCH  18  20
ATOM     20  O   UNL     1      46.653  27.062 -12.943  1.00  0.00    -0.504 OA
ATOM     21  H   UNL     1      46.513  27.688 -12.259  1.00  0.00     0.293 HD
ENDBRANCH  18  20
BRANCH  19  22
ATOM     22  O   UNL     1      47.102  24.464 -13.568  1.00  0.00    -0.504 OA
ATOM     23  H   UNL     1      47.220  23.537 -13.521  1.00  0.00     0.293 HD
ENDBRANCH  19  22
ENDBRANCH   4  14
BRANCH  10  24
ATOM     24  O   UNL     1      37.231  28.573 -14.548  1.00  0.00    -0.507 OA
ATOM     25  H   UNL     1      36.775  28.129 -13.860  1.00  0.00     0.293 HD
ENDBRANCH  10  24
BRANCH   8  26
ATOM     26  O   UNL     1      38.020  26.572 -18.788  1.00  0.00    -0.508 OA
ATOM     27  H   UNL     1      37.726  27.251 -19.363  1.00  0.00     0.293 HD
ENDBRANCH   8  26
TORSDOF 6
ENDMDL
MODEL 9
REMARK VINA RESULT:    -8.025      2.359      7.381
REMARK INTER + INTRA:          -9.362
REMARK INTER:                  -9.062
REMARK INTRA:                  -0.300
REMARK UNBOUND:                 0.304
REMARK SMILES O=c1c(O)c(-c2ccc(O)c(O)c2)oc2cc(O)cc(O)c12
REMARK SMILES IDX 1 1 2 2 3 3 5 4 14 5 15 6 16 7 17 8 19 9 20 10 22 11 4 12
REMARK SMILES IDX 6 14 7 15 13 16 8 17 11 18 9 19 12 20 10 22 21 24 18 26
REMARK H PARENT 4 13 12 21 10 23 21 25 18 27
ROOT
ATOM      1  O   UNL     1      37.693  33.346 -17.778  1.00  0.00    -0.285 OA
ATOM      2  C   UNL     1      37.138  32.391 -17.238  1.00  0.00     0.238 A 
ATOM      3  C   UNL     1      37.937  31.288 -16.657  1.00  0.00     0.208 A 
ATOM      4  C   UNL     1      37.290  30.263 -16.073  1.00  0.00     0.180 A 
ATOM      5  O   UNL     1      35.905  30.178 -15.974  1.00  0.00    -0.452 OA
ATOM      6  C   UNL     1      35.138  31.181 -16.511  1.00  0.00     0.146 A 
ATOM      7  C   UNL     1      33.754  31.049 -16.398  1.00  0.00     0.094 A 
ATOM      8  C   UNL     1      32.927  32.039 -16.923  1.00  0.00     0.123 A 
ATOM      9  C   UNL     1      33.459  33.158 -17.560  1.00  0.00     0.093 A 
ATOM     10  C   UNL     1      34.841  33.283 -17.668  1.00  0.00     0.134 A 
ATOM     11  C   UNL     1      35.681  32.294 -17.144  1.00  0.00     0.111 A 
ENDROOT
BRANCH   3  12
ATOM     12  O   UNL     1      39.313  31.398 -16.740  1.00  0.00    -0.502 OA
ATOM     13  H   UNL     1      39.718  32.243 -16.725  1.00  0.00     0.293 HD
ENDBRANCH   3  12
BRANCH   4  14
ATOM     14  C   UNL     1      37.982  29.117 -15.442  1.00  0.00     0.025 A 
ATOM     15  C   UNL     1      38.049  27.886 -16.120  1.00  0.00     0.016 A 
ATOM     16  C   UNL     1      38.612  29.235 -14.191  1.00  0.00     0.062 A 
ATOM     17  C   UNL     1      38.715  26.791 -15.563  1.00  0.00     0.051 A 
ATOM     18  C   UNL     1      39.269  28.138 -13.639  1.00  0.00     0.158 A 
ATOM     19  C   UNL     1      39.319  26.928 -14.324  1.00  0.00     0.157 A 
BRANCH  18  20
ATOM     20  O   UNL     1      39.888  28.205 -12.421  1.00  0.00    -0.504 OA
ATOM     21  H   UNL     1      40.710  27.775 -12.289  1.00  0.00     0.293 HD
ENDBRANCH  18  20
BRANCH  19  22
ATOM     22  O   UNL     1      39.969  25.860 -13.776  1.00  0.00    -0.504 OA
ATOM     23  H   UNL     1      39.584  25.394 -13.061  1.00  0.00     0.293 HD
ENDBRANCH  19  22
ENDBRANCH   4  14
BRANCH  10  24
ATOM     24  O   UNL     1      35.311  34.401 -18.302  1.00  0.00    -0.507 OA
ATOM     25  H   UNL     1      34.713  34.984 -18.728  1.00  0.00     0.293 HD
ENDBRANCH  10  24
BRANCH   8  26
ATOM     26  O   UNL     1      31.580  31.872 -16.792  1.00  0.00    -0.508 OA
ATOM     27  H   UNL     1      31.203  31.752 -15.943  1.00  0.00     0.293 HD
ENDBRANCH   8  26
TORSDOF 6
ENDMDL
