MODEL 1
REMARK VINA RESULT:    -8.767      0.000      0.000
REMARK INTER + INTRA:         -11.143
REMARK INTER:                 -10.817
REMARK INTRA:                  -0.326
REMARK UNBOUND:                -0.326
REMARK SMILES Clc1ccccc1Oc1ccc(Nc2ncnc3[nH]ccc23)cc1
REMARK SMILES IDX 9 1 10 2 11 3 12 4 23 5 24 6 8 7 7 8 2 9 3 10 4 11 6 12 5 13
REMARK SMILES IDX 1 14 13 15 14 17 15 18 22 19 16 20 21 21 18 22 17 23 20 24
REMARK SMILES IDX 19 25
REMARK H PARENT 13 16 19 26
ROOT
ATOM      1  C   UNL     1     180.394  20.461  47.503  1.00  0.00     0.127 A 
ATOM      2  C   UNL     1     181.634  20.489  46.866  1.00  0.00     0.049 A 
ATOM      3  C   UNL     1     181.837  19.729  45.711  1.00  0.00     0.030 A 
ATOM      4  C   UNL     1     180.811  18.935  45.178  1.00  0.00     0.040 A 
ATOM      5  C   UNL     1     179.560  18.953  45.806  1.00  0.00     0.030 A 
ATOM      6  C   UNL     1     179.351  19.711  46.962  1.00  0.00     0.049 A 
ENDROOT
BRANCH   1   7
ATOM      7  O   UNL     1     180.109  21.204  48.625  1.00  0.00    -0.456 OA
BRANCH   7   8
ATOM      8  C   UNL     1     179.030  22.058  48.554  1.00  0.00     0.146 A 
ATOM      9  C   UNL     1     178.178  22.180  49.657  1.00  0.00     0.083 A 
ATOM     10  C   UNL     1     177.105  23.071  49.613  1.00  0.00     0.024 A 
ATOM     11  C   UNL     1     176.890  23.853  48.476  1.00  0.00     0.002 A 
ATOM     12  C   UNL     1     178.826  22.858  47.423  1.00  0.00     0.049 A 
ATOM     13  C   UNL     1     177.751  23.749  47.384  1.00  0.00     0.004 A 
ATOM     14  Cl  UNL     1     178.410  21.234  51.082  1.00  0.00    -0.080 Cl
ENDBRANCH   7   8
ENDBRANCH   1   7
BRANCH   4  15
ATOM     15  N   UNL     1     181.071  18.214  43.995  1.00  0.00    -0.340 N 
ATOM     16  H   UNL     1     181.393  18.744  43.229  1.00  0.00     0.168 HD
BRANCH  15  17
ATOM     17  C   UNL     1     180.928  16.836  43.772  1.00  0.00     0.143 A 
ATOM     18  N   UNL     1     180.581  16.078  44.843  1.00  0.00    -0.218 NA
ATOM     19  C   UNL     1     181.056  16.200  42.523  1.00  0.00     0.061 A 
ATOM     20  C   UNL     1     180.422  14.751  44.671  1.00  0.00     0.226 A 
ATOM     21  C   UNL     1     181.327  16.588  41.179  1.00  0.00     0.033 A 
ATOM     22  C   UNL     1     180.859  14.828  42.502  1.00  0.00     0.142 A 
ATOM     23  N   UNL     1     180.550  14.038  43.540  1.00  0.00    -0.218 NA
ATOM     24  C   UNL     1     181.310  15.451  40.397  1.00  0.00     0.085 A 
ATOM     25  N   UNL     1     181.027  14.389  41.217  1.00  0.00    -0.346 N 
ATOM     26  H   UNL     1     180.954  13.452  40.925  1.00  0.00     0.167 HD
ENDBRANCH  15  17
ENDBRANCH   4  15
TORSDOF 4
ENDMDL
MODEL 2
REMARK VINA RESULT:    -8.574      1.511      1.901
REMARK INTER + INTRA:         -10.905
REMARK INTER:                 -10.327
REMARK INTRA:                  -0.578
REMARK UNBOUND:                -0.326
REMARK SMILES Clc1ccccc1Oc1ccc(Nc2ncnc3[nH]ccc23)cc1
REMARK SMILES IDX 9 1 10 2 11 3 12 4 23 5 24 6 8 7 7 8 2 9 3 10 4 11 6 12 5 13
REMARK SMILES IDX 1 14 13 15 14 17 15 18 22 19 16 20 21 21 18 22 17 23 20 24
REMARK SMILES IDX 19 25
REMARK H PARENT 13 16 19 26
ROOT
ATOM      1  C   UNL     1     179.320  20.900  46.805  1.00  0.00     0.127 A 
ATOM      2  C   UNL     1     178.867  20.681  45.505  1.00  0.00     0.049 A 
ATOM      3  C   UNL     1     179.559  19.800  44.669  1.00  0.00     0.030 A 
ATOM      4  C   UNL     1     180.704  19.127  45.117  1.00  0.00     0.040 A 
ATOM      5  C   UNL     1     181.120  19.326  46.439  1.00  0.00     0.030 A 
ATOM      6  C   UNL     1     180.432  20.206  47.280  1.00  0.00     0.049 A 
ENDROOT
BRANCH   1   7
ATOM      7  O   UNL     1     178.677  21.728  47.696  1.00  0.00    -0.456 OA
BRANCH   7   8
ATOM      8  C   UNL     1     177.667  21.174  48.450  1.00  0.00     0.146 A 
ATOM      9  C   UNL     1     177.623  21.425  49.825  1.00  0.00     0.083 A 
ATOM     10  C   UNL     1     176.582  20.902  50.596  1.00  0.00     0.024 A 
ATOM     11  C   UNL     1     175.578  20.143  49.992  1.00  0.00     0.002 A 
ATOM     12  C   UNL     1     176.647  20.431  47.843  1.00  0.00     0.049 A 
ATOM     13  C   UNL     1     175.608  19.910  48.617  1.00  0.00     0.004 A 
ATOM     14  Cl  UNL     1     178.843  22.360  50.610  1.00  0.00    -0.080 Cl
ENDBRANCH   7   8
ENDBRANCH   1   7
BRANCH   4  15
ATOM     15  N   UNL     1     181.340  18.230  44.234  1.00  0.00    -0.340 N 
ATOM     16  H   UNL     1     182.114  18.586  43.741  1.00  0.00     0.168 HD
BRANCH  15  17
ATOM     17  C   UNL     1     181.004  16.892  43.970  1.00  0.00     0.143 A 
ATOM     18  N   UNL     1     180.542  16.162  45.017  1.00  0.00    -0.218 NA
ATOM     19  C   UNL     1     181.056  16.280  42.705  1.00  0.00     0.061 A 
ATOM     20  C   UNL     1     180.199  14.876  44.805  1.00  0.00     0.226 A 
ATOM     21  C   UNL     1     181.395  16.662  41.375  1.00  0.00     0.033 A 
ATOM     22  C   UNL     1     180.666  14.950  42.642  1.00  0.00     0.142 A 
ATOM     23  N   UNL     1     180.237  14.184  43.655  1.00  0.00    -0.218 NA
ATOM     24  C   UNL     1     181.226  15.561  40.560  1.00  0.00     0.085 A 
ATOM     25  N   UNL     1     180.785  14.528  41.347  1.00  0.00    -0.346 N 
ATOM     26  H   UNL     1     180.583  13.619  41.027  1.00  0.00     0.167 HD
ENDBRANCH  15  17
ENDBRANCH   4  15
TORSDOF 4
ENDMDL
MODEL 3
REMARK VINA RESULT:    -8.379      4.020      8.412
REMARK INTER + INTRA:         -10.664
REMARK INTER:                  -9.744
REMARK INTRA:                  -0.920
REMARK UNBOUND:                -0.326
REMARK SMILES Clc1ccccc1Oc1ccc(Nc2ncnc3[nH]ccc23)cc1
REMARK SMILES IDX 9 1 10 2 11 3 12 4 23 5 24 6 8 7 7 8 2 9 3 10 4 11 6 12 5 13
REMARK SMILES IDX 1 14 13 15 14 17 15 18 22 19 16 20 21 21 18 22 17 23 20 24
REMARK SMILES IDX 19 25
REMARK H PARENT 13 16 19 26
ROOT
ATOM      1  C   UNL     1     180.752  18.204  45.119  1.00  0.00     0.127 A 
ATOM      2  C   UNL     1     181.142  19.542  45.070  1.00  0.00     0.049 A 
ATOM      3  C   UNL     1     180.272  20.534  45.531  1.00  0.00     0.030 A 
ATOM      4  C   UNL     1     179.009  20.207  46.044  1.00  0.00     0.040 A 
ATOM      5  C   UNL     1     178.652  18.856  46.124  1.00  0.00     0.030 A 
ATOM      6  C   UNL     1     179.518  17.859  45.666  1.00  0.00     0.049 A 
ENDROOT
BRANCH   1   7
ATOM      7  O   UNL     1     181.564  17.170  44.713  1.00  0.00    -0.456 OA
BRANCH   7   8
ATOM      8  C   UNL     1     181.224  16.530  43.541  1.00  0.00     0.146 A 
ATOM      9  C   UNL     1     180.889  15.173  43.573  1.00  0.00     0.083 A 
ATOM     10  C   UNL     1     180.505  14.521  42.399  1.00  0.00     0.024 A 
ATOM     11  C   UNL     1     180.439  15.228  41.197  1.00  0.00     0.002 A 
ATOM     12  C   UNL     1     181.137  17.242  42.338  1.00  0.00     0.049 A 
ATOM     13  C   UNL     1     180.752  16.587  41.166  1.00  0.00     0.004 A 
ATOM     14  Cl  UNL     1     180.955  14.264  45.039  1.00  0.00    -0.080 Cl
ENDBRANCH   7   8
ENDBRANCH   1   7
BRANCH   4  15
ATOM     15  N   UNL     1     178.191  21.252  46.518  1.00  0.00    -0.340 N 
ATOM     16  H   UNL     1     177.721  21.778  45.831  1.00  0.00     0.168 HD
BRANCH  15  17
ATOM     17  C   UNL     1     177.963  21.637  47.849  1.00  0.00     0.143 A 
ATOM     18  N   UNL     1     178.659  22.711  48.300  1.00  0.00    -0.218 NA
ATOM     19  C   UNL     1     177.034  21.036  48.718  1.00  0.00     0.061 A 
ATOM     20  C   UNL     1     178.463  23.122  49.568  1.00  0.00     0.226 A 
ATOM     21  C   UNL     1     176.082  19.978  48.655  1.00  0.00     0.033 A 
ATOM     22  C   UNL     1     176.940  21.572  49.994  1.00  0.00     0.142 A 
ATOM     23  N   UNL     1     177.632  22.607  50.490  1.00  0.00    -0.218 NA
ATOM     24  C   UNL     1     175.465  19.889  49.886  1.00  0.00     0.085 A 
ATOM     25  N   UNL     1     176.000  20.863  50.689  1.00  0.00    -0.346 N 
ATOM     26  H   UNL     1     175.745  21.029  51.626  1.00  0.00     0.167 HD
ENDBRANCH  15  17
ENDBRANCH   4  15
TORSDOF 4
ENDMDL
MODEL 4
REMARK VINA RESULT:    -8.308      4.008      8.371
REMARK INTER + INTRA:         -10.577
REMARK INTER:                  -9.715
REMARK INTRA:                  -0.862
REMARK UNBOUND:                -0.326
REMARK SMILES Clc1ccccc1Oc1ccc(Nc2ncnc3[nH]ccc23)cc1
REMARK SMILES IDX 9 1 10 2 11 3 12 4 23 5 24 6 8 7 7 8 2 9 3 10 4 11 6 12 5 13
REMARK SMILES IDX 1 14 13 15 14 17 15 18 22 19 16 20 21 21 18 22 17 23 20 24
REMARK SMILES IDX 19 25
REMARK H PARENT 13 16 19 26
ROOT
ATOM      1  C   UNL     1     180.723  18.270  45.131  1.00  0.00     0.127 A 
ATOM      2  C   UNL     1     181.060  19.621  45.062  1.00  0.00     0.049 A 
ATOM      3  C   UNL     1     180.169  20.584  45.544  1.00  0.00     0.030 A 
ATOM      4  C   UNL     1     178.936  20.213  46.099  1.00  0.00     0.040 A 
ATOM      5  C   UNL     1     178.632  18.850  46.200  1.00  0.00     0.030 A 
ATOM      6  C   UNL     1     179.520  17.883  45.719  1.00  0.00     0.049 A 
ENDROOT
BRANCH   1   7
ATOM      7  O   UNL     1     181.559  17.264  44.705  1.00  0.00    -0.456 OA
BRANCH   7   8
ATOM      8  C   UNL     1     181.211  16.610  43.543  1.00  0.00     0.146 A 
ATOM      9  C   UNL     1     180.851  15.260  43.599  1.00  0.00     0.083 A 
ATOM     10  C   UNL     1     180.458  14.594  42.436  1.00  0.00     0.024 A 
ATOM     11  C   UNL     1     180.409  15.281  41.221  1.00  0.00     0.002 A 
ATOM     12  C   UNL     1     181.140  17.302  42.328  1.00  0.00     0.049 A 
ATOM     13  C   UNL     1     180.746  16.633  41.167  1.00  0.00     0.004 A 
ATOM     14  Cl  UNL     1     180.897  14.376  45.081  1.00  0.00    -0.080 Cl
ENDBRANCH   7   8
ENDBRANCH   1   7
BRANCH   4  15
ATOM     15  N   UNL     1     178.094  21.231  46.594  1.00  0.00    -0.340 N 
ATOM     16  H   UNL     1     178.235  22.129  46.215  1.00  0.00     0.168 HD
BRANCH  15  17
ATOM     17  C   UNL     1     177.082  21.123  47.560  1.00  0.00     0.143 A 
ATOM     18  N   UNL     1     175.848  20.776  47.114  1.00  0.00    -0.218 NA
ATOM     19  C   UNL     1     177.264  21.287  48.946  1.00  0.00     0.061 A 
ATOM     20  C   UNL     1     174.849  20.650  48.010  1.00  0.00     0.226 A 
ATOM     21  C   UNL     1     178.346  21.573  49.828  1.00  0.00     0.033 A 
ATOM     22  C   UNL     1     176.142  21.122  49.744  1.00  0.00     0.142 A 
ATOM     23  N   UNL     1     174.901  20.814  49.342  1.00  0.00    -0.218 NA
ATOM     24  C   UNL     1     177.850  21.595  51.115  1.00  0.00     0.085 A 
ATOM     25  N   UNL     1     176.508  21.322  51.046  1.00  0.00    -0.346 N 
ATOM     26  H   UNL     1     175.899  21.276  51.819  1.00  0.00     0.167 HD
ENDBRANCH  15  17
ENDBRANCH   4  15
TORSDOF 4
ENDMDL
MODEL 5
REMARK VINA RESULT:    -8.115      1.746      2.170
REMARK INTER + INTRA:         -10.339
REMARK INTER:                  -9.846
REMARK INTRA:                  -0.493
REMARK UNBOUND:                -0.326
REMARK SMILES Clc1ccccc1Oc1ccc(Nc2ncnc3[nH]ccc23)cc1
REMARK SMILES IDX 9 1 10 2 11 3 12 4 23 5 24 6 8 7 7 8 2 9 3 10 4 11 6 12 5 13
REMARK SMILES IDX 1 14 13 15 14 17 15 18 22 19 16 20 21 21 18 22 17 23 20 24
REMARK SMILES IDX 19 25
REMARK H PARENT 13 16 19 26
ROOT
ATOM      1  C   UNL     1     179.960  20.516  47.629  1.00  0.00     0.127 A 
ATOM      2  C   UNL     1     181.286  20.423  47.207  1.00  0.00     0.049 A 
ATOM      3  C   UNL     1     181.603  19.658  46.082  1.00  0.00     0.030 A 
ATOM      4  C   UNL     1     180.608  18.981  45.364  1.00  0.00     0.040 A 
ATOM      5  C   UNL     1     179.277  19.120  45.777  1.00  0.00     0.030 A 
ATOM      6  C   UNL     1     178.954  19.884  46.902  1.00  0.00     0.049 A 
ENDROOT
BRANCH   1   7
ATOM      7  O   UNL     1     179.566  21.273  48.709  1.00  0.00    -0.456 OA
BRANCH   7   8
ATOM      8  C   UNL     1     180.311  22.397  48.991  1.00  0.00     0.146 A 
ATOM      9  C   UNL     1     179.956  23.618  48.410  1.00  0.00     0.083 A 
ATOM     10  C   UNL     1     180.677  24.774  48.718  1.00  0.00     0.024 A 
ATOM     11  C   UNL     1     181.743  24.713  49.618  1.00  0.00     0.002 A 
ATOM     12  C   UNL     1     181.366  22.342  49.911  1.00  0.00     0.049 A 
ATOM     13  C   UNL     1     182.085  23.500  50.217  1.00  0.00     0.004 A 
ATOM     14  Cl  UNL     1     178.644  23.736  47.294  1.00  0.00    -0.080 Cl
ENDBRANCH   7   8
ENDBRANCH   1   7
BRANCH   4  15
ATOM     15  N   UNL     1     180.990  18.249  44.221  1.00  0.00    -0.340 N 
ATOM     16  H   UNL     1     181.416  18.767  43.500  1.00  0.00     0.168 HD
BRANCH  15  17
ATOM     17  C   UNL     1     180.836  16.874  43.982  1.00  0.00     0.143 A 
ATOM     18  N   UNL     1     180.462  16.110  45.039  1.00  0.00    -0.218 NA
ATOM     19  C   UNL     1     180.982  16.249  42.730  1.00  0.00     0.061 A 
ATOM     20  C   UNL     1     180.293  14.786  44.851  1.00  0.00     0.226 A 
ATOM     21  C   UNL     1     181.283  16.647  41.395  1.00  0.00     0.033 A 
ATOM     22  C   UNL     1     180.771  14.879  42.691  1.00  0.00     0.142 A 
ATOM     23  N   UNL     1     180.435  14.083  43.716  1.00  0.00    -0.218 NA
ATOM     24  C   UNL     1     181.269  15.518  40.602  1.00  0.00     0.085 A 
ATOM     25  N   UNL     1     180.959  14.451  41.406  1.00  0.00    -0.346 N 
ATOM     26  H   UNL     1     180.883  13.517  41.103  1.00  0.00     0.167 HD
ENDBRANCH  15  17
ENDBRANCH   4  15
TORSDOF 4
ENDMDL
MODEL 6
REMARK VINA RESULT:    -8.009      4.279      6.832
REMARK INTER + INTRA:         -10.208
REMARK INTER:                  -9.396
REMARK INTRA:                  -0.812
REMARK UNBOUND:                -0.326
REMARK SMILES Clc1ccccc1Oc1ccc(Nc2ncnc3[nH]ccc23)cc1
REMARK SMILES IDX 9 1 10 2 11 3 12 4 23 5 24 6 8 7 7 8 2 9 3 10 4 11 6 12 5 13
REMARK SMILES IDX 1 14 13 15 14 17 15 18 22 19 16 20 21 21 18 22 17 23 20 24
REMARK SMILES IDX 19 25
REMARK H PARENT 13 16 19 26
ROOT
ATOM      1  C   UNL     1     181.974  21.573  47.222  1.00  0.00     0.127 A 
ATOM      2  C   UNL     1     181.780  20.549  46.296  1.00  0.00     0.049 A 
ATOM      3  C   UNL     1     180.497  20.291  45.806  1.00  0.00     0.030 A 
ATOM      4  C   UNL     1     179.396  21.048  46.230  1.00  0.00     0.040 A 
ATOM      5  C   UNL     1     179.615  22.100  47.127  1.00  0.00     0.030 A 
ATOM      6  C   UNL     1     180.896  22.362  47.621  1.00  0.00     0.049 A 
ENDROOT
BRANCH   1   7
ATOM      7  O   UNL     1     183.209  21.906  47.727  1.00  0.00    -0.456 OA
BRANCH   7   8
ATOM      8  C   UNL     1     183.846  22.989  47.162  1.00  0.00     0.146 A 
ATOM      9  C   UNL     1     184.173  24.087  47.965  1.00  0.00     0.083 A 
ATOM     10  C   UNL     1     184.854  25.175  47.415  1.00  0.00     0.024 A 
ATOM     11  C   UNL     1     185.222  25.160  46.068  1.00  0.00     0.002 A 
ATOM     12  C   UNL     1     184.236  22.967  45.817  1.00  0.00     0.049 A 
ATOM     13  C   UNL     1     184.917  24.057  45.271  1.00  0.00     0.004 A 
ATOM     14  Cl  UNL     1     183.737  24.143  49.634  1.00  0.00    -0.080 Cl
ENDBRANCH   7   8
ENDBRANCH   1   7
BRANCH   4  15
ATOM     15  N   UNL     1     178.132  20.756  45.676  1.00  0.00    -0.340 N 
ATOM     16  H   UNL     1     178.012  20.994  44.728  1.00  0.00     0.168 HD
BRANCH  15  17
ATOM     17  C   UNL     1     177.025  20.169  46.308  1.00  0.00     0.143 A 
ATOM     18  N   UNL     1     176.757  18.877  45.994  1.00  0.00    -0.218 NA
ATOM     19  C   UNL     1     176.218  20.798  47.275  1.00  0.00     0.061 A 
ATOM     20  C   UNL     1     175.709  18.272  46.586  1.00  0.00     0.226 A 
ATOM     21  C   UNL     1     176.172  22.062  47.932  1.00  0.00     0.033 A 
ATOM     22  C   UNL     1     175.178  20.046  47.800  1.00  0.00     0.142 A 
ATOM     23  N   UNL     1     174.859  18.781  47.493  1.00  0.00    -0.218 NA
ATOM     24  C   UNL     1     175.104  22.047  48.806  1.00  0.00     0.085 A 
ATOM     25  N   UNL     1     174.509  20.815  48.711  1.00  0.00    -0.346 N 
ATOM     26  H   UNL     1     173.719  20.527  49.224  1.00  0.00     0.167 HD
ENDBRANCH  15  17
ENDBRANCH   4  15
TORSDOF 4
ENDMDL
MODEL 7
REMARK VINA RESULT:    -7.785      5.141      7.319
REMARK INTER + INTRA:          -9.932
REMARK INTER:                  -9.059
REMARK INTRA:                  -0.873
REMARK UNBOUND:                -0.326
REMARK SMILES Clc1ccccc1Oc1ccc(Nc2ncnc3[nH]ccc23)cc1
REMARK SMILES IDX 9 1 10 2 11 3 12 4 23 5 24 6 8 7 7 8 2 9 3 10 4 11 6 12 5 13
REMARK SMILES IDX 1 14 13 15 14 17 15 18 22 19 16 20 21 21 18 22 17 23 20 24
REMARK SMILES IDX 19 25
REMARK H PARENT 13 16 19 26
ROOT
ATOM      1  C   UNL     1     179.226  21.813  47.187  1.00  0.00     0.127 A 
ATOM      2  C   UNL     1     179.848  22.976  47.640  1.00  0.00     0.049 A 
ATOM      3  C   UNL     1     181.231  22.988  47.841  1.00  0.00     0.030 A 
ATOM      4  C   UNL     1     182.008  21.848  47.593  1.00  0.00     0.040 A 
ATOM      5  C   UNL     1     181.373  20.703  47.097  1.00  0.00     0.030 A 
ATOM      6  C   UNL     1     179.990  20.685  46.894  1.00  0.00     0.049 A 
ENDROOT
BRANCH   1   7
ATOM      7  O   UNL     1     177.875  21.732  46.937  1.00  0.00    -0.456 OA
BRANCH   7   8
ATOM      8  C   UNL     1     177.088  21.178  47.922  1.00  0.00     0.146 A 
ATOM      9  C   UNL     1     176.491  19.933  47.702  1.00  0.00     0.083 A 
ATOM     10  C   UNL     1     175.723  19.340  48.706  1.00  0.00     0.024 A 
ATOM     11  C   UNL     1     175.565  19.982  49.936  1.00  0.00     0.002 A 
ATOM     12  C   UNL     1     176.947  21.809  49.164  1.00  0.00     0.049 A 
ATOM     13  C   UNL     1     176.178  21.213  50.166  1.00  0.00     0.004 A 
ATOM     14  Cl  UNL     1     176.663  19.105  46.197  1.00  0.00    -0.080 Cl
ENDBRANCH   7   8
ENDBRANCH   1   7
BRANCH   4  15
ATOM     15  N   UNL     1     183.402  21.935  47.788  1.00  0.00    -0.340 N 
ATOM     16  H   UNL     1     183.879  21.078  47.878  1.00  0.00     0.168 HD
BRANCH  15  17
ATOM     17  C   UNL     1     184.194  23.091  47.871  1.00  0.00     0.143 A 
ATOM     18  N   UNL     1     184.623  23.447  49.109  1.00  0.00    -0.218 NA
ATOM     19  C   UNL     1     184.619  23.862  46.774  1.00  0.00     0.061 A 
ATOM     20  C   UNL     1     185.395  24.545  49.233  1.00  0.00     0.226 A 
ATOM     21  C   UNL     1     184.476  23.825  45.357  1.00  0.00     0.033 A 
ATOM     22  C   UNL     1     185.415  24.961  47.058  1.00  0.00     0.142 A 
ATOM     23  N   UNL     1     185.832  25.368  48.265  1.00  0.00    -0.218 NA
ATOM     24  C   UNL     1     185.161  24.902  44.833  1.00  0.00     0.085 A 
ATOM     25  N   UNL     1     185.723  25.585  45.881  1.00  0.00    -0.346 N 
ATOM     26  H   UNL     1     186.269  26.401  45.798  1.00  0.00     0.167 HD
ENDBRANCH  15  17
ENDBRANCH   4  15
TORSDOF 4
ENDMDL
MODEL 8
REMARK VINA RESULT:    -7.702      4.409      6.822
REMARK INTER + INTRA:          -9.829
REMARK INTER:                  -9.133
REMARK INTRA:                  -0.695
REMARK UNBOUND:                -0.326
REMARK SMILES Clc1ccccc1Oc1ccc(Nc2ncnc3[nH]ccc23)cc1
REMARK SMILES IDX 9 1 10 2 11 3 12 4 23 5 24 6 8 7 7 8 2 9 3 10 4 11 6 12 5 13
REMARK SMILES IDX 1 14 13 15 14 17 15 18 22 19 16 20 21 21 18 22 17 23 20 24
REMARK SMILES IDX 19 25
REMARK H PARENT 13 16 19 26
ROOT
ATOM      1  C   UNL     1     181.932  21.444  47.510  1.00  0.00     0.127 A 
ATOM      2  C   UNL     1     180.876  22.335  47.692  1.00  0.00     0.049 A 
ATOM      3  C   UNL     1     179.639  22.076  47.094  1.00  0.00     0.030 A 
ATOM      4  C   UNL     1     179.441  20.931  46.311  1.00  0.00     0.040 A 
ATOM      5  C   UNL     1     180.500  20.025  46.174  1.00  0.00     0.030 A 
ATOM      6  C   UNL     1     181.739  20.279  46.770  1.00  0.00     0.049 A 
ENDROOT
BRANCH   1   7
ATOM      7  O   UNL     1     183.168  21.615  48.090  1.00  0.00    -0.456 OA
BRANCH   7   8
ATOM      8  C   UNL     1     183.651  22.903  48.167  1.00  0.00     0.146 A 
ATOM      9  C   UNL     1     184.131  23.525  47.010  1.00  0.00     0.083 A 
ATOM     10  C   UNL     1     184.587  24.844  47.065  1.00  0.00     0.024 A 
ATOM     11  C   UNL     1     184.549  25.547  48.271  1.00  0.00     0.002 A 
ATOM     12  C   UNL     1     183.593  23.617  49.371  1.00  0.00     0.049 A 
ATOM     13  C   UNL     1     184.050  24.936  49.422  1.00  0.00     0.004 A 
ATOM     14  Cl  UNL     1     184.194  22.692  45.500  1.00  0.00    -0.080 Cl
ENDBRANCH   7   8
ENDBRANCH   1   7
BRANCH   4  15
ATOM     15  N   UNL     1     178.162  20.713  45.759  1.00  0.00    -0.340 N 
ATOM     16  H   UNL     1     178.045  20.988  44.821  1.00  0.00     0.168 HD
BRANCH  15  17
ATOM     17  C   UNL     1     177.035  20.153  46.381  1.00  0.00     0.143 A 
ATOM     18  N   UNL     1     176.763  18.854  46.096  1.00  0.00    -0.218 NA
ATOM     19  C   UNL     1     176.212  20.814  47.311  1.00  0.00     0.061 A 
ATOM     20  C   UNL     1     175.696  18.275  46.679  1.00  0.00     0.226 A 
ATOM     21  C   UNL     1     176.162  22.096  47.932  1.00  0.00     0.033 A 
ATOM     22  C   UNL     1     175.153  20.086  47.831  1.00  0.00     0.142 A 
ATOM     23  N   UNL     1     174.830  18.815  47.552  1.00  0.00    -0.218 NA
ATOM     24  C   UNL     1     175.074  22.114  48.781  1.00  0.00     0.085 A 
ATOM     25  N   UNL     1     174.470  20.885  48.706  1.00  0.00    -0.346 N 
ATOM     26  H   UNL     1     173.665  20.618  49.207  1.00  0.00     0.167 HD
ENDBRANCH  15  17
ENDBRANCH   4  15
TORSDOF 4
ENDMDL
MODEL 9
REMARK VINA RESULT:    -7.510      5.192      7.147
REMARK INTER + INTRA:          -9.592
REMARK INTER:                  -8.694
REMARK INTRA:                  -0.898
REMARK UNBOUND:                -0.326
REMARK SMILES Clc1ccccc1Oc1ccc(Nc2ncnc3[nH]ccc23)cc1
REMARK SMILES IDX 9 1 10 2 11 3 12 4 23 5 24 6 8 7 7 8 2 9 3 10 4 11 6 12 5 13
REMARK SMILES IDX 1 14 13 15 14 17 15 18 22 19 16 20 21 21 18 22 17 23 20 24
REMARK SMILES IDX 19 25
REMARK H PARENT 13 16 19 26
ROOT
ATOM      1  C   UNL     1     182.337  22.598  47.690  1.00  0.00     0.127 A 
ATOM      2  C   UNL     1     181.572  23.711  48.035  1.00  0.00     0.049 A 
ATOM      3  C   UNL     1     180.177  23.631  47.998  1.00  0.00     0.030 A 
ATOM      4  C   UNL     1     179.531  22.445  47.622  1.00  0.00     0.040 A 
ATOM      5  C   UNL     1     180.315  21.325  47.321  1.00  0.00     0.030 A 
ATOM      6  C   UNL     1     181.710  21.400  47.355  1.00  0.00     0.049 A 
ENDROOT
BRANCH   1   7
ATOM      7  O   UNL     1     183.713  22.591  47.730  1.00  0.00    -0.456 OA
BRANCH   7   8
ATOM      8  C   UNL     1     184.368  23.477  46.904  1.00  0.00     0.146 A 
ATOM      9  C   UNL     1     185.262  24.399  47.459  1.00  0.00     0.083 A 
ATOM     10  C   UNL     1     185.963  25.276  46.630  1.00  0.00     0.024 A 
ATOM     11  C   UNL     1     185.784  25.224  45.245  1.00  0.00     0.002 A 
ATOM     12  C   UNL     1     184.206  23.412  45.514  1.00  0.00     0.049 A 
ATOM     13  C   UNL     1     184.909  24.291  44.688  1.00  0.00     0.004 A 
ATOM     14  Cl  UNL     1     185.514  24.494  49.164  1.00  0.00    -0.080 Cl
ENDBRANCH   7   8
ENDBRANCH   1   7
BRANCH   4  15
ATOM     15  N   UNL     1     178.121  22.421  47.633  1.00  0.00    -0.340 N 
ATOM     16  H   UNL     1     177.673  23.164  47.168  1.00  0.00     0.168 HD
BRANCH  15  17
ATOM     17  C   UNL     1     177.277  21.469  48.227  1.00  0.00     0.143 A 
ATOM     18  N   UNL     1     176.881  21.716  49.501  1.00  0.00    -0.218 NA
ATOM     19  C   UNL     1     176.770  20.324  47.585  1.00  0.00     0.061 A 
ATOM     20  C   UNL     1     176.062  20.834  50.106  1.00  0.00     0.226 A 
ATOM     21  C   UNL     1     176.857  19.729  46.293  1.00  0.00     0.033 A 
ATOM     22  C   UNL     1     175.933  19.511  48.335  1.00  0.00     0.142 A 
ATOM     23  N   UNL     1     175.545  19.700  49.604  1.00  0.00    -0.218 NA
ATOM     24  C   UNL     1     176.099  18.576  46.305  1.00  0.00     0.085 A 
ATOM     25  N   UNL     1     175.547  18.456  47.555  1.00  0.00    -0.346 N 
ATOM     26  H   UNL     1     174.959  17.722  47.846  1.00  0.00     0.167 HD
ENDBRANCH  15  17
ENDBRANCH   4  15
TORSDOF 4
ENDMDL
