REMARK SMILES [NH3+]CCNC(=O)c1ccc(Cl)cn1
REMARK SMILES IDX 3 1 2 2 1 3 4 7 5 8 6 9 7 11 8 12 13 13 9 14 12 15 10 16
REMARK SMILES IDX 11 17
REMARK H PARENT 1 4 1 5 1 6 4 10
ROOT
ATOM      1  C   UNL     1       2.413   0.569   0.950  1.00  0.00     0.177 C 
ENDROOT
BRANCH   1   2
ATOM      2  C   UNL     1       3.239   0.021  -0.223  1.00  0.00     0.280 C 
BRANCH   2   3
ATOM      3  N   UNL     1       3.119  -1.438  -0.340  1.00  0.00    -0.356 N 
ATOM      4  H   UNL     1       3.680  -1.763  -1.127  1.00  0.00     0.344 HD
ATOM      5  H   UNL     1       2.141  -1.687  -0.493  1.00  0.00     0.344 HD
ATOM      6  H   UNL     1       3.451  -1.877   0.519  1.00  0.00     0.344 HD
ENDBRANCH   2   3
ENDBRANCH   1   2
BRANCH   1   7
ATOM      7  N   UNL     1       1.010   0.214   0.853  1.00  0.00    -0.345 N 
ATOM      8  C   UNL     1       0.132   0.865   0.015  1.00  0.00     0.270 C 
ATOM      9  O   UNL     1       0.426   1.844  -0.661  1.00  0.00    -0.268 OA
ATOM     10  H   UNL     1       0.671  -0.524   1.409  1.00  0.00     0.164 HD
BRANCH   8  11
ATOM     11  C   UNL     1      -1.242   0.267  -0.025  1.00  0.00     0.128 A 
ATOM     12  C   UNL     1      -2.238   0.869  -0.787  1.00  0.00     0.036 A 
ATOM     13  N   UNL     1      -1.429  -0.871   0.706  1.00  0.00    -0.250 NA
ATOM     14  C   UNL     1      -3.503   0.282  -0.805  1.00  0.00     0.024 A 
ATOM     15  C   UNL     1      -2.672  -1.410   0.664  1.00  0.00     0.132 A 
ATOM     16  C   UNL     1      -3.725  -0.876  -0.067  1.00  0.00     0.059 A 
ATOM     17  Cl  UNL     1      -5.268  -1.627  -0.064  1.00  0.00    -0.083 Cl
ENDBRANCH   8  11
ENDBRANCH   1   7
TORSDOF 4
