REMARK SMILES O=c1c(O)c(-c2ccc(O)c(O)c2)oc2cc(O)cc(O)c12
REMARK SMILES IDX 1 1 2 2 3 3 5 4 14 5 15 6 16 7 17 8 19 9 20 10 22 11 4 12
REMARK SMILES IDX 6 14 7 15 13 16 8 17 11 18 9 19 12 20 10 22 21 24 18 26
REMARK H PARENT 4 13 12 21 10 23 21 25 18 27
ROOT
ATOM      1  O   UNL     1       1.765  -1.850   2.380  1.00  0.00    -0.285 OA
ATOM      2  C   UNL     1       1.403  -1.131   1.451  1.00  0.00     0.238 A 
ATOM      3  C   UNL     1      -0.037  -0.879   1.213  1.00  0.00     0.208 A 
ATOM      4  C   UNL     1      -0.390  -0.083   0.187  1.00  0.00     0.180 A 
ATOM      5  O   UNL     1       0.522   0.528  -0.667  1.00  0.00    -0.452 OA
ATOM      6  C   UNL     1       1.862   0.307  -0.477  1.00  0.00     0.146 A 
ATOM      7  C   UNL     1       2.740   0.931  -1.363  1.00  0.00     0.094 A 
ATOM      8  C   UNL     1       4.112   0.743  -1.215  1.00  0.00     0.123 A 
ATOM      9  C   UNL     1       4.622  -0.059  -0.197  1.00  0.00     0.093 A 
ATOM     10  C   UNL     1       3.740  -0.679   0.684  1.00  0.00     0.134 A 
ATOM     11  C   UNL     1       2.360  -0.496   0.544  1.00  0.00     0.111 A 
ENDROOT
BRANCH   3  12
ATOM     12  O   UNL     1      -0.931  -1.473   2.085  1.00  0.00    -0.502 OA
ATOM     13  H   UNL     1      -0.617  -2.018   2.780  1.00  0.00     0.293 HD
ENDBRANCH   3  12
BRANCH   4  14
ATOM     14  C   UNL     1      -1.794   0.256  -0.135  1.00  0.00     0.025 A 
ATOM     15  C   UNL     1      -2.136   1.587  -0.440  1.00  0.00     0.016 A 
ATOM     16  C   UNL     1      -2.797  -0.728  -0.184  1.00  0.00     0.062 A 
ATOM     17  C   UNL     1      -3.448   1.937  -0.771  1.00  0.00     0.051 A 
ATOM     18  C   UNL     1      -4.103  -0.371  -0.510  1.00  0.00     0.158 A 
ATOM     19  C   UNL     1      -4.421   0.952  -0.802  1.00  0.00     0.157 A 
BRANCH  18  20
ATOM     20  O   UNL     1      -5.112  -1.293  -0.560  1.00  0.00    -0.504 OA
ATOM     21  H   UNL     1      -5.982  -1.024  -0.783  1.00  0.00     0.293 HD
ENDBRANCH  18  20
BRANCH  19  22
ATOM     22  O   UNL     1      -5.704   1.290  -1.124  1.00  0.00    -0.504 OA
ATOM     23  H   UNL     1      -5.918   2.180  -1.321  1.00  0.00     0.293 HD
ENDBRANCH  19  22
ENDBRANCH   4  14
BRANCH  10  24
ATOM     24  O   UNL     1       4.294  -1.455   1.666  1.00  0.00    -0.507 OA
ATOM     25  H   UNL     1       5.225  -1.548   1.720  1.00  0.00     0.293 HD
ENDBRANCH  10  24
BRANCH   8  26
ATOM     26  O   UNL     1       4.935   1.371  -2.102  1.00  0.00    -0.508 OA
ATOM     27  H   UNL     1       4.572   1.906  -2.780  1.00  0.00     0.293 HD
ENDBRANCH   8  26
TORSDOF 6
