REMARK SMILES Cc1cc2nc3c(=O)[nH]c(=O)nc-3n(C[C@H](O)[C@H](O)[C@H](O)CO[P@@](=O)([O-])O[P@](=O)([O-])OC[C@H]3O[C@@H](n4cnc5c(N)ncnc54)[C@H](O)[C@@H]3O)c2cc1C
REMARK SMILES IDX 24 1 25 2 26 3 27 4 28 5 29 6 30 7 31 8 32 9 33 10 34 11
REMARK SMILES IDX 48 12 35 13 46 14 49 15 36 17 37 18 45 19 38 20 39 21 44 22
REMARK SMILES IDX 40 23 43 24 42 25 41 26 47 29 23 31 22 32 20 33 18 34 16 35
REMARK SMILES IDX 15 36 14 37 50 38 13 39 51 40 4 41 6 42 12 43 52 44 5 45
REMARK SMILES IDX 3 46 7 47 10 48 2 49 9 50 8 51 11 52 53 53 1 54 17 56 19 58
REMARK SMILES IDX 21 60
REMARK H PARENT 49 16 41 27 41 28 47 30 9 55 17 57 19 59 21 61
ROOT
ATOM      1  P   UNL     1      57.448 139.907  19.686  1.00  0.00     0.274 P 
ATOM      2  O   UNL     1      58.648 139.209  19.175  1.00  0.00    -0.276 OA
ATOM      3  O   UNL     1      56.888 139.246  20.954  1.00  0.00    -0.756 OA
ENDROOT
BRANCH   1   4
ATOM      4  O   UNL     1      56.371 139.846  18.686  1.00  0.00    -0.250 OA
BRANCH   4   5
ATOM      5  P   UNL     1      56.419 140.527  16.909  1.00  0.00     0.274 P 
ATOM      6  O   UNL     1      57.293 141.788  16.869  1.00  0.00    -0.276 OA
ATOM      7  O   UNL     1      55.033 140.772  16.435  1.00  0.00    -0.756 OA
BRANCH   5   8
ATOM      8  O   UNL     1      57.124 139.344  16.076  1.00  0.00    -0.315 OA
BRANCH   8   9
ATOM      9  C   UNL     1      56.368 138.293  15.526  1.00  0.00     0.204 C 
BRANCH   9  10
ATOM     10  C   UNL     1      56.982 137.923  14.184  1.00  0.00     0.178 C 
ATOM     11  O   UNL     1      56.374 136.750  13.692  1.00  0.00    -0.347 OA
ATOM     12  C   UNL     1      56.767 139.007  13.138  1.00  0.00     0.179 C 
ATOM     13  C   UNL     1      56.076 136.901  12.321  1.00  0.00     0.253 C 
ATOM     14  C   UNL     1      55.816 138.387  12.131  1.00  0.00     0.195 C 
BRANCH  12  15
ATOM     15  O   UNL     1      58.012 139.311  12.547  1.00  0.00    -0.387 OA
ATOM     16  H   UNL     1      58.400 138.503  12.177  1.00  0.00     0.211 HD
ENDBRANCH  12  15
BRANCH  13  17
ATOM     17  N   UNL     1      54.951 136.022  11.957  1.00  0.00    -0.285 N 
ATOM     18  C   UNL     1      53.607 136.208  12.169  1.00  0.00     0.204 A 
ATOM     19  C   UNL     1      55.109 134.814  11.333  1.00  0.00     0.167 A 
ATOM     20  N   UNL     1      52.944 135.138  11.675  1.00  0.00    -0.231 NA
ATOM     21  C   UNL     1      53.841 134.269  11.158  1.00  0.00     0.150 A 
ATOM     22  N   UNL     1      56.221 134.159  10.904  1.00  0.00    -0.216 NA
ATOM     23  C   UNL     1      53.716 133.029  10.533  1.00  0.00     0.155 A 
ATOM     24  C   UNL     1      56.104 132.931  10.286  1.00  0.00     0.226 A 
ATOM     25  N   UNL     1      54.854 132.372  10.105  1.00  0.00    -0.217 NA
BRANCH  23  26
ATOM     26  N   UNL     1      52.526 132.453  10.380  1.00  0.00    -0.382 N 
ATOM     27  H   UNL     1      51.712 132.917  10.683  1.00  0.00     0.158 HD
ATOM     28  H   UNL     1      52.460 131.563   9.964  1.00  0.00     0.158 HD
ENDBRANCH  23  26
ENDBRANCH  13  17
BRANCH  14  29
ATOM     29  O   UNL     1      56.089 138.818  10.817  1.00  0.00    -0.386 OA
ATOM     30  H   UNL     1      57.010 138.610  10.593  1.00  0.00     0.211 HD
ENDBRANCH  14  29
ENDBRANCH   9  10
ENDBRANCH   8   9
ENDBRANCH   5   8
ENDBRANCH   4   5
ENDBRANCH   1   4
BRANCH   1  31
ATOM     31  O   UNL     1      57.836 141.442  19.971  1.00  0.00    -0.315 OA
BRANCH  31  32
ATOM     32  C   UNL     1      56.813 142.348  20.315  1.00  0.00     0.204 C 
BRANCH  32  33
ATOM     33  C   UNL     1      57.382 143.742  20.542  1.00  0.00     0.172 C 
BRANCH  33  34
ATOM     34  C   UNL     1      56.241 144.680  20.942  1.00  0.00     0.175 C 
BRANCH  34  35
ATOM     35  C   UNL     1      56.568 146.174  20.855  1.00  0.00     0.165 C 
BRANCH  35  36
ATOM     36  C   UNL     1      55.361 147.008  21.300  1.00  0.00     0.159 C 
BRANCH  36  37
ATOM     37  N   UNL     1      55.614 148.494  21.224  1.00  0.00    -0.320 N 
ATOM     38  C   UNL     1      55.071 149.260  20.197  1.00  0.00     0.069 A 
ATOM     39  C   UNL     1      56.545 149.099  22.056  1.00  0.00     0.170 A 
ATOM     40  C   UNL     1      54.730 148.702  18.966  1.00  0.00     0.032 A 
ATOM     41  C   UNL     1      54.939 150.640  20.385  1.00  0.00     0.088 A 
ATOM     42  C   UNL     1      56.696 150.486  22.014  1.00  0.00     0.172 A 
ATOM     43  N   UNL     1      57.341 148.354  22.911  1.00  0.00    -0.173 NA
ATOM     44  C   UNL     1      54.234 149.509  17.946  1.00  0.00    -0.046 A 
ATOM     45  N   UNL     1      55.904 151.241  21.168  1.00  0.00    -0.237 NA
ATOM     46  C   UNL     1      54.424 151.433  19.360  1.00  0.00     0.034 A 
ATOM     47  C   UNL     1      57.644 151.106  22.827  1.00  0.00     0.281 A 
ATOM     48  C   UNL     1      58.278 148.973  23.717  1.00  0.00     0.349 A 
ATOM     49  C   UNL     1      54.077 150.878  18.137  1.00  0.00    -0.046 A 
ATOM     50  N   UNL     1      58.428 150.347  23.677  1.00  0.00    -0.271 N 
ATOM     51  O   UNL     1      57.785 152.326  22.793  1.00  0.00    -0.267 OA
ATOM     52  O   UNL     1      58.976 148.299  24.469  1.00  0.00    -0.246 OA
ATOM     53  C   UNL     1      53.883 148.884  16.636  1.00  0.00     0.044 C 
ATOM     54  C   UNL     1      53.540 151.767  17.050  1.00  0.00     0.044 C 
ATOM     55  H   UNL     1      59.094 150.786  24.254  1.00  0.00     0.175 HD
ENDBRANCH  36  37
ENDBRANCH  35  36
BRANCH  35  56
ATOM     56  O   UNL     1      56.939 146.541  19.543  1.00  0.00    -0.388 OA
ATOM     57  H   UNL     1      56.199 146.373  18.939  1.00  0.00     0.211 HD
ENDBRANCH  35  56
ENDBRANCH  34  35
BRANCH  34  58
ATOM     58  O   UNL     1      55.873 144.365  22.269  1.00  0.00    -0.388 OA
ATOM     59  H   UNL     1      56.625 144.526  22.860  1.00  0.00     0.211 HD
ENDBRANCH  34  58
ENDBRANCH  33  34
BRANCH  33  60
ATOM     60  O   UNL     1      58.043 144.172  19.372  1.00  0.00    -0.388 OA
ATOM     61  H   UNL     1      57.416 144.185  18.632  1.00  0.00     0.211 HD
ENDBRANCH  33  60
ENDBRANCH  32  33
ENDBRANCH  31  32
ENDBRANCH   1  31
TORSDOF 19
