REMARK SMILES Clc1ccccc1Oc1ccc(Nc2ncnc3[nH]ccc23)cc1
REMARK SMILES IDX 9 1 10 2 11 3 12 4 23 5 24 6 8 7 7 8 2 9 3 10 4 11 6 12 5 13
REMARK SMILES IDX 1 14 13 15 14 17 15 18 22 19 16 20 21 21 18 22 17 23 20 24
REMARK SMILES IDX 19 25
REMARK H PARENT 13 16 19 26
ROOT
ATOM      1  C   UNL     1      -1.764   0.830  -0.332  1.00  0.00     0.127 A 
ATOM      2  C   UNL     1      -1.562   1.138   1.014  1.00  0.00     0.049 A 
ATOM      3  C   UNL     1      -0.264   1.338   1.491  1.00  0.00     0.030 A 
ATOM      4  C   UNL     1       0.844   1.236   0.638  1.00  0.00     0.040 A 
ATOM      5  C   UNL     1       0.619   0.970  -0.718  1.00  0.00     0.030 A 
ATOM      6  C   UNL     1      -0.677   0.769  -1.202  1.00  0.00     0.049 A 
ENDROOT
BRANCH   1   7
ATOM      7  O   UNL     1      -3.012   0.649  -0.882  1.00  0.00    -0.456 OA
BRANCH   7   8
ATOM      8  C   UNL     1      -3.899  -0.136  -0.178  1.00  0.00     0.146 A 
ATOM      9  C   UNL     1      -5.172   0.364   0.115  1.00  0.00     0.083 A 
ATOM     10  C   UNL     1      -6.096  -0.435   0.793  1.00  0.00     0.024 A 
ATOM     11  C   UNL     1      -5.754  -1.737   1.165  1.00  0.00     0.002 A 
ATOM     12  C   UNL     1      -3.566  -1.449   0.177  1.00  0.00     0.049 A 
ATOM     13  C   UNL     1      -4.492  -2.244   0.855  1.00  0.00     0.004 A 
ATOM     14  Cl  UNL     1      -5.634   1.966  -0.328  1.00  0.00    -0.080 Cl
ENDBRANCH   7   8
ENDBRANCH   1   7
BRANCH   4  15
ATOM     15  N   UNL     1       2.125   1.479   1.176  1.00  0.00    -0.340 N 
ATOM     16  H   UNL     1       2.147   1.941   2.045  1.00  0.00     0.168 HD
BRANCH  15  17
ATOM     17  C   UNL     1       3.372   1.143   0.626  1.00  0.00     0.143 A 
ATOM     18  N   UNL     1       4.332   2.102   0.663  1.00  0.00    -0.218 NA
ATOM     19  C   UNL     1       3.712  -0.116   0.099  1.00  0.00     0.061 A 
ATOM     20  C   UNL     1       5.548   1.819   0.155  1.00  0.00     0.226 A 
ATOM     21  C   UNL     1       3.076  -1.380  -0.074  1.00  0.00     0.033 A 
ATOM     22  C   UNL     1       5.004  -0.259  -0.384  1.00  0.00     0.142 A 
ATOM     23  N   UNL     1       5.971   0.670  -0.396  1.00  0.00    -0.218 NA
ATOM     24  C   UNL     1       3.982  -2.232  -0.670  1.00  0.00     0.085 A 
ATOM     25  N   UNL     1       5.149  -1.535  -0.854  1.00  0.00    -0.346 N 
ATOM     26  H   UNL     1       5.967  -1.899  -1.263  1.00  0.00     0.167 HD
ENDBRANCH  15  17
ENDBRANCH   4  15
TORSDOF 4
