REMARK SMILES Cc1cc(-c2oc3cccc(O)c3c(=O)c2O)ccc1C(C)(C)C
REMARK SMILES IDX 5 1 6 2 7 3 8 4 9 5 10 6 11 7 13 8 14 9 15 10 16 11 4 12
REMARK SMILES IDX 2 13 3 14 20 15 19 16 18 17 1 18 21 19 22 20 23 21 24 22
REMARK SMILES IDX 17 23 12 25
REMARK H PARENT 17 24 12 26
ROOT
ATOM      1  C   UNL     1       1.710  -0.519   0.438  1.00  0.00     0.180 A 
ATOM      2  O   UNL     1       2.415   0.117  -0.578  1.00  0.00    -0.452 OA
ATOM      3  C   UNL     1       3.784   0.042  -0.582  1.00  0.00     0.142 A 
ATOM      4  C   UNL     1       4.450   0.682  -1.628  1.00  0.00     0.048 A 
ATOM      5  C   UNL     1       5.845   0.646  -1.691  1.00  0.00     0.008 A 
ATOM      6  C   UNL     1       6.573  -0.029  -0.710  1.00  0.00     0.047 A 
ATOM      7  C   UNL     1       5.906  -0.667   0.333  1.00  0.00     0.130 A 
ATOM      8  C   UNL     1       4.510  -0.632   0.395  1.00  0.00     0.110 A 
ATOM      9  C   UNL     1       3.770  -1.289   1.473  1.00  0.00     0.238 A 
ATOM     10  O   UNL     1       4.340  -1.897   2.377  1.00  0.00    -0.285 OA
ATOM     11  C   UNL     1       2.292  -1.199   1.444  1.00  0.00     0.208 A 
ENDROOT
BRANCH   1  12
ATOM     12  C   UNL     1       0.246  -0.353   0.312  1.00  0.00     0.021 A 
ATOM     13  C   UNL     1      -1.689   1.110  -0.155  1.00  0.00    -0.047 A 
ATOM     14  C   UNL     1      -0.297   0.900   0.010  1.00  0.00     0.015 A 
ATOM     15  C   UNL     1      -2.592   0.029   0.017  1.00  0.00    -0.040 A 
ATOM     16  C   UNL     1      -2.013  -1.232   0.295  1.00  0.00     0.005 A 
ATOM     17  C   UNL     1      -0.633  -1.421   0.438  1.00  0.00     0.012 A 
ATOM     18  C   UNL     1      -2.091   2.527  -0.472  1.00  0.00     0.044 C 
BRANCH  15  19
ATOM     19  C   UNL     1      -4.136   0.134  -0.115  1.00  0.00    -0.013 C 
ATOM     20  C   UNL     1      -4.724   1.355   0.628  1.00  0.00     0.016 C 
ATOM     21  C   UNL     1      -4.889  -1.092   0.477  1.00  0.00     0.016 C 
ATOM     22  C   UNL     1      -4.513   0.196  -1.610  1.00  0.00     0.016 C 
ENDBRANCH  15  19
ENDBRANCH   1  12
BRANCH  11  23
ATOM     23  O   UNL     1       1.604  -1.813   2.474  1.00  0.00    -0.502 OA
ATOM     24  H   UNL     1       2.074  -2.270   3.143  1.00  0.00     0.293 HD
ENDBRANCH  11  23
BRANCH   7  25
ATOM     25  O   UNL     1       6.680  -1.310   1.260  1.00  0.00    -0.507 OA
ATOM     26  H   UNL     1       7.613  -1.306   1.175  1.00  0.00     0.293 HD
ENDBRANCH   7  25
TORSDOF 4
