REMARK SMILES CCCc1ccc(-c2oc3cccc(O)c3c(=O)c2O)cc1CC
REMARK SMILES IDX 4 1 5 2 6 3 7 4 21 5 22 6 3 7 2 8 1 9 23 10 24 11 8 12 9 13
REMARK SMILES IDX 19 14 10 15 17 16 11 17 16 18 18 19 12 20 14 21 13 22 20 23
REMARK SMILES IDX 15 25
REMARK H PARENT 20 24 15 26
ROOT
ATOM      1  C   UNL     1      -2.454  -0.634   0.535  1.00  0.00    -0.045 A 
ATOM      2  C   UNL     1      -1.540  -1.700   0.466  1.00  0.00     0.005 A 
ATOM      3  C   UNL     1      -0.187  -1.475   0.204  1.00  0.00     0.012 A 
ATOM      4  C   UNL     1       0.293  -0.179  -0.006  1.00  0.00     0.022 A 
ATOM      5  C   UNL     1      -0.616   0.885   0.066  1.00  0.00     0.016 A 
ATOM      6  C   UNL     1      -1.988   0.678   0.321  1.00  0.00    -0.044 A 
ENDROOT
BRANCH   1   7
ATOM      7  C   UNL     1      -3.907  -0.959   0.808  1.00  0.00     0.035 C 
BRANCH   7   8
ATOM      8  C   UNL     1      -4.678  -1.236  -0.484  1.00  0.00     0.001 C 
ATOM      9  C   UNL     1      -6.140  -1.544  -0.201  1.00  0.00     0.004 C 
ENDBRANCH   7   8
ENDBRANCH   1   7
BRANCH   6  10
ATOM     10  C   UNL     1      -2.887   1.892   0.383  1.00  0.00     0.032 C 
ATOM     11  C   UNL     1      -2.940   2.490   1.781  1.00  0.00     0.009 C 
ENDBRANCH   6  10
BRANCH   4  12
ATOM     12  C   UNL     1       1.734   0.042  -0.251  1.00  0.00     0.180 A 
ATOM     13  O   UNL     1       2.546  -0.665   0.629  1.00  0.00    -0.452 OA
ATOM     14  C   UNL     1       2.204   0.828  -1.237  1.00  0.00     0.208 A 
ATOM     15  C   UNL     1       3.908  -0.550   0.514  1.00  0.00     0.142 A 
ATOM     16  C   UNL     1       3.670   0.964  -1.395  1.00  0.00     0.238 A 
ATOM     17  C   UNL     1       4.683  -1.265   1.428  1.00  0.00     0.048 A 
ATOM     18  C   UNL     1       4.523   0.232  -0.458  1.00  0.00     0.110 A 
ATOM     19  O   UNL     1       4.139   1.669  -2.287  1.00  0.00    -0.285 OA
ATOM     20  C   UNL     1       6.077  -1.194   1.365  1.00  0.00     0.008 A 
ATOM     21  C   UNL     1       5.917   0.303  -0.522  1.00  0.00     0.130 A 
ATOM     22  C   UNL     1       6.694  -0.409   0.388  1.00  0.00     0.047 A 
BRANCH  14  23
ATOM     23  O   UNL     1       1.408   1.514  -2.137  1.00  0.00    -0.502 OA
ATOM     24  H   UNL     1       1.802   2.045  -2.800  1.00  0.00     0.293 HD
ENDBRANCH  14  23
BRANCH  21  25
ATOM     25  O   UNL     1       6.586   1.051  -1.452  1.00  0.00    -0.507 OA
ATOM     26  H   UNL     1       7.523   1.066  -1.455  1.00  0.00     0.293 HD
ENDBRANCH  21  25
ENDBRANCH   4  12
TORSDOF 6
