REMARK SMILES Cc1ccc(-c2oc3cccc(O)c3c(=O)c2O)cc1C(C)(C)C
REMARK SMILES IDX 6 1 7 2 8 3 9 4 10 5 11 6 12 7 14 8 15 9 16 10 17 11 5 12
REMARK SMILES IDX 2 13 3 14 20 15 4 16 19 17 1 18 21 19 22 20 23 21 24 22
REMARK SMILES IDX 18 23 13 25
REMARK H PARENT 18 24 13 26
ROOT
ATOM      1  C   UNL     1       1.576   0.678  -0.410  1.00  0.00     0.180 A 
ATOM      2  O   UNL     1       1.884  -0.670  -0.559  1.00  0.00    -0.452 OA
ATOM      3  C   UNL     1       3.178  -1.080  -0.366  1.00  0.00     0.142 A 
ATOM      4  C   UNL     1       3.444  -2.439  -0.538  1.00  0.00     0.048 A 
ATOM      5  C   UNL     1       4.741  -2.924  -0.355  1.00  0.00     0.008 A 
ATOM      6  C   UNL     1       5.771  -2.050   0.001  1.00  0.00     0.047 A 
ATOM      7  C   UNL     1       5.502  -0.695   0.172  1.00  0.00     0.130 A 
ATOM      8  C   UNL     1       4.205  -0.210  -0.012  1.00  0.00     0.110 A 
ATOM      9  C   UNL     1       3.880   1.206   0.158  1.00  0.00     0.238 A 
ATOM     10  O   UNL     1       4.730   2.035   0.476  1.00  0.00    -0.285 OA
ATOM     11  C   UNL     1       2.475   1.619  -0.066  1.00  0.00     0.208 A 
ENDROOT
BRANCH   1  12
ATOM     12  C   UNL     1       0.146   0.970  -0.646  1.00  0.00     0.022 A 
ATOM     13  C   UNL     1      -2.614   1.444  -1.079  1.00  0.00    -0.047 A 
ATOM     14  C   UNL     1      -1.617   2.244  -1.680  1.00  0.00     0.004 A 
ATOM     15  C   UNL     1      -2.236   0.343  -0.266  1.00  0.00    -0.039 A 
ATOM     16  C   UNL     1      -0.261   2.011  -1.471  1.00  0.00     0.012 A 
ATOM     17  C   UNL     1      -0.843   0.155  -0.064  1.00  0.00     0.016 A 
ATOM     18  C   UNL     1      -4.032   1.833  -1.403  1.00  0.00     0.044 C 
BRANCH  15  19
ATOM     19  C   UNL     1      -3.233  -0.623   0.432  1.00  0.00    -0.013 C 
ATOM     20  C   UNL     1      -4.372  -1.094  -0.501  1.00  0.00     0.016 C 
ATOM     21  C   UNL     1      -3.825   0.074   1.675  1.00  0.00     0.016 C 
ATOM     22  C   UNL     1      -2.568  -1.935   0.939  1.00  0.00     0.016 C 
ENDBRANCH  15  19
ENDBRANCH   1  12
BRANCH  11  23
ATOM     23  O   UNL     1       2.176   2.957   0.111  1.00  0.00    -0.502 OA
ATOM     24  H   UNL     1       2.852   3.560   0.350  1.00  0.00     0.293 HD
ENDBRANCH  11  23
BRANCH   7  25
ATOM     25  O   UNL     1       6.557   0.104   0.521  1.00  0.00    -0.507 OA
ATOM     26  H   UNL     1       7.409  -0.268   0.633  1.00  0.00     0.293 HD
ENDBRANCH   7  25
TORSDOF 4
