REMARK SMILES C=Cc1ccc(-c2oc3cccc(O)c3c(=O)c2O)cc1C=C
REMARK SMILES IDX 7 1 8 2 9 3 10 4 11 5 12 6 13 7 15 8 16 9 17 10 18 11 6 12
REMARK SMILES IDX 3 13 4 14 21 15 5 16 20 17 2 18 1 19 22 20 23 21 19 22 14 24
REMARK H PARENT 19 23 14 25
ROOT
ATOM      1  C   UNL     1       0.815  -0.217   0.122  1.00  0.00     0.180 A 
ATOM      2  O   UNL     1       1.427   0.432   1.188  1.00  0.00    -0.452 OA
ATOM      3  C   UNL     1       2.794   0.544   1.200  1.00  0.00     0.142 A 
ATOM      4  C   UNL     1       3.365   1.217   2.281  1.00  0.00     0.048 A 
ATOM      5  C   UNL     1       4.751   1.365   2.356  1.00  0.00     0.008 A 
ATOM      6  C   UNL     1       5.566   0.839   1.352  1.00  0.00     0.047 A 
ATOM      7  C   UNL     1       4.994   0.168   0.274  1.00  0.00     0.130 A 
ATOM      8  C   UNL     1       3.606   0.021   0.199  1.00  0.00     0.110 A 
ATOM      9  C   UNL     1       2.965  -0.677  -0.916  1.00  0.00     0.238 A 
ATOM     10  O   UNL     1       3.614  -1.173  -1.834  1.00  0.00    -0.285 OA
ATOM     11  C   UNL     1       1.486  -0.771  -0.905  1.00  0.00     0.208 A 
ENDROOT
BRANCH   1  12
ATOM     12  C   UNL     1      -0.657  -0.260   0.243  1.00  0.00     0.022 A 
ATOM     13  C   UNL     1      -3.477  -0.283   0.534  1.00  0.00    -0.019 A 
ATOM     14  C   UNL     1      -2.636  -0.640   1.601  1.00  0.00     0.009 A 
ATOM     15  C   UNL     1      -2.898   0.072  -0.703  1.00  0.00    -0.018 A 
ATOM     16  C   UNL     1      -1.246  -0.623   1.458  1.00  0.00     0.013 A 
ATOM     17  C   UNL     1      -1.495   0.097  -0.824  1.00  0.00     0.020 A 
BRANCH  13  18
ATOM     18  C   UNL     1      -4.938  -0.356   0.714  1.00  0.00     0.001 C 
ATOM     19  C   UNL     1      -5.588   0.167   1.761  1.00  0.00     0.009 C 
ENDBRANCH  13  18
BRANCH  15  20
ATOM     20  C   UNL     1      -3.725   0.487  -1.851  1.00  0.00     0.001 C 
ATOM     21  C   UNL     1      -3.541   0.039  -3.100  1.00  0.00     0.009 C 
ENDBRANCH  15  20
ENDBRANCH   1  12
BRANCH  11  22
ATOM     22  O   UNL     1       0.890  -1.444  -1.955  1.00  0.00    -0.502 OA
ATOM     23  H   UNL     1       1.418  -1.806  -2.639  1.00  0.00     0.293 HD
ENDBRANCH  11  22
BRANCH   7  24
ATOM     24  O   UNL     1       5.850  -0.322  -0.673  1.00  0.00    -0.507 OA
ATOM     25  H   UNL     1       6.774  -0.199  -0.579  1.00  0.00     0.293 HD
ENDBRANCH   7  24
TORSDOF 5
