REMARK SMILES CCCc1ccc(-c2oc3cccc(O)c3c(=O)c2O)cc1C(F)F
REMARK SMILES IDX 4 1 5 2 6 3 7 4 21 5 22 6 3 7 2 8 1 9 23 10 24 11 25 12 8 13
REMARK SMILES IDX 9 14 19 15 10 16 17 17 11 18 16 19 18 20 12 21 14 22 13 23
REMARK SMILES IDX 20 24 15 26
REMARK H PARENT 20 25 15 27
ROOT
ATOM      1  C   UNL     1      -2.769  -0.284  -0.203  1.00  0.00    -0.039 A 
ATOM      2  C   UNL     1      -2.145  -1.280   0.566  1.00  0.00     0.005 A 
ATOM      3  C   UNL     1      -0.757  -1.311   0.717  1.00  0.00     0.012 A 
ATOM      4  C   UNL     1       0.048  -0.341   0.114  1.00  0.00     0.022 A 
ATOM      5  C   UNL     1      -0.573   0.652  -0.659  1.00  0.00     0.022 A 
ATOM      6  C   UNL     1      -1.973   0.702  -0.822  1.00  0.00     0.022 A 
ENDROOT
BRANCH   1   7
ATOM      7  C   UNL     1      -4.279  -0.301  -0.307  1.00  0.00     0.036 C 
BRANCH   7   8
ATOM      8  C   UNL     1      -4.941   0.374   0.896  1.00  0.00     0.001 C 
ATOM      9  C   UNL     1      -6.456   0.380   0.765  1.00  0.00     0.004 C 
ENDBRANCH   7   8
ENDBRANCH   1   7
BRANCH   6  10
ATOM     10  C   UNL     1      -2.567   1.794  -1.682  1.00  0.00     0.373 C 
ATOM     11  F   UNL     1      -3.567   2.482  -1.063  1.00  0.00    -0.205 F 
ATOM     12  F   UNL     1      -1.661   2.741  -2.064  1.00  0.00    -0.205 F 
ENDBRANCH   6  10
BRANCH   4  13
ATOM     13  C   UNL     1       1.522  -0.364   0.237  1.00  0.00     0.180 A 
ATOM     14  O   UNL     1       2.168  -0.179  -0.981  1.00  0.00    -0.452 OA
ATOM     15  C   UNL     1       2.163  -0.524   1.409  1.00  0.00     0.208 A 
ATOM     16  C   UNL     1       3.539  -0.173  -1.010  1.00  0.00     0.142 A 
ATOM     17  C   UNL     1       3.644  -0.516   1.412  1.00  0.00     0.238 A 
ATOM     18  C   UNL     1       4.145   0.006  -2.254  1.00  0.00     0.048 A 
ATOM     19  C   UNL     1       4.323  -0.333   0.128  1.00  0.00     0.110 A 
ATOM     20  O   UNL     1       4.266  -0.658   2.463  1.00  0.00    -0.285 OA
ATOM     21  C   UNL     1       5.538   0.023  -2.354  1.00  0.00     0.008 A 
ATOM     22  C   UNL     1       5.716  -0.316   0.029  1.00  0.00     0.130 A 
ATOM     23  C   UNL     1       6.324  -0.138  -1.212  1.00  0.00     0.047 A 
BRANCH  15  24
ATOM     24  O   UNL     1       1.533  -0.682   2.630  1.00  0.00    -0.502 OA
ATOM     25  H   UNL     1       2.041  -0.790   3.409  1.00  0.00     0.293 HD
ENDBRANCH  15  24
BRANCH  22  26
ATOM     26  O   UNL     1       6.545  -0.467   1.107  1.00  0.00    -0.507 OA
ATOM     27  H   UNL     1       7.475  -0.449   0.989  1.00  0.00     0.293 HD
ENDBRANCH  22  26
ENDBRANCH   4  13
TORSDOF 6
