REMARK SMILES C=Cc1cc(-c2oc3cccc(O)c3c(=O)c2O)ccc1CC
REMARK SMILES IDX 6 1 7 2 8 3 9 4 10 5 11 6 12 7 14 8 15 9 16 10 17 11 5 12
REMARK SMILES IDX 3 13 4 14 21 15 20 16 19 17 2 18 1 19 22 20 23 21 18 22
REMARK SMILES IDX 13 24
REMARK H PARENT 18 23 13 25
ROOT
ATOM      1  C   UNL     1       1.058   0.417  -0.207  1.00  0.00     0.180 A 
ATOM      2  O   UNL     1       1.698  -0.288   0.806  1.00  0.00    -0.452 OA
ATOM      3  C   UNL     1       3.053  -0.480   0.726  1.00  0.00     0.142 A 
ATOM      4  C   UNL     1       3.656  -1.181   1.771  1.00  0.00     0.048 A 
ATOM      5  C   UNL     1       5.034  -1.413   1.751  1.00  0.00     0.008 A 
ATOM      6  C   UNL     1       5.806  -0.946   0.686  1.00  0.00     0.047 A 
ATOM      7  C   UNL     1       5.202  -0.247  -0.356  1.00  0.00     0.130 A 
ATOM      8  C   UNL     1       3.824  -0.014  -0.334  1.00  0.00     0.110 A 
ATOM      9  C   UNL     1       3.149   0.716  -1.409  1.00  0.00     0.238 A 
ATOM     10  O   UNL     1       3.760   1.153  -2.382  1.00  0.00    -0.285 OA
ATOM     11  C   UNL     1       1.687   0.915  -1.288  1.00  0.00     0.208 A 
ENDROOT
BRANCH   1  12
ATOM     12  C   UNL     1      -0.399   0.542   0.013  1.00  0.00     0.022 A 
ATOM     13  C   UNL     1      -2.527  -0.499   0.656  1.00  0.00    -0.022 A 
ATOM     14  C   UNL     1      -1.144  -0.579   0.408  1.00  0.00     0.020 A 
ATOM     15  C   UNL     1      -3.185   0.737   0.500  1.00  0.00    -0.041 A 
ATOM     16  C   UNL     1      -2.436   1.860   0.108  1.00  0.00     0.005 A 
ATOM     17  C   UNL     1      -1.062   1.765  -0.125  1.00  0.00     0.012 A 
BRANCH  13  18
ATOM     18  C   UNL     1      -3.256  -1.720   1.030  1.00  0.00     0.000 C 
ATOM     19  C   UNL     1      -2.893  -2.508   2.050  1.00  0.00     0.009 C 
ENDBRANCH  13  18
BRANCH  15  20
ATOM     20  C   UNL     1      -4.670   0.911   0.727  1.00  0.00     0.033 C 
ATOM     21  C   UNL     1      -5.467   0.741  -0.558  1.00  0.00     0.009 C 
ENDBRANCH  15  20
ENDBRANCH   1  12
BRANCH  11  22
ATOM     22  O   UNL     1       1.057   1.593  -2.315  1.00  0.00    -0.502 OA
ATOM     23  H   UNL     1       1.557   1.914  -3.040  1.00  0.00     0.293 HD
ENDBRANCH  11  22
BRANCH   7  24
ATOM     24  O   UNL     1       6.018   0.183  -1.367  1.00  0.00    -0.507 OA
ATOM     25  H   UNL     1       6.936   0.002  -1.336  1.00  0.00     0.293 HD
ENDBRANCH   7  24
TORSDOF 5
