REMARK SMILES CCc1cc(-c2oc3cccc(O)c3c(=O)c2O)ccc1C(F)(F)F
REMARK SMILES IDX 6 1 7 2 8 3 9 4 10 5 11 6 12 7 14 8 15 9 16 10 17 11 5 12
REMARK SMILES IDX 3 13 4 14 21 15 20 16 19 17 2 18 1 19 22 20 23 21 24 22
REMARK SMILES IDX 25 23 18 24 13 26
REMARK H PARENT 18 25 13 27
ROOT
ATOM      1  C   UNL     1       0.878   0.095  -0.176  1.00  0.00     0.180 A 
ATOM      2  O   UNL     1       1.810  -0.920   0.006  1.00  0.00    -0.452 OA
ATOM      3  C   UNL     1       3.142  -0.596   0.056  1.00  0.00     0.142 A 
ATOM      4  C   UNL     1       4.042  -1.644   0.256  1.00  0.00     0.048 A 
ATOM      5  C   UNL     1       5.413  -1.383   0.315  1.00  0.00     0.008 A 
ATOM      6  C   UNL     1       5.883  -0.075   0.175  1.00  0.00     0.047 A 
ATOM      7  C   UNL     1       4.983   0.968  -0.024  1.00  0.00     0.130 A 
ATOM      8  C   UNL     1       3.612   0.707  -0.083  1.00  0.00     0.110 A 
ATOM      9  C   UNL     1       2.632   1.774  -0.290  1.00  0.00     0.238 A 
ATOM     10  O   UNL     1       2.968   2.949  -0.429  1.00  0.00    -0.285 OA
ATOM     11  C   UNL     1       1.202   1.393  -0.329  1.00  0.00     0.208 A 
ENDROOT
BRANCH   1  12
ATOM     12  C   UNL     1      -0.513  -0.402  -0.210  1.00  0.00     0.022 A 
ATOM     13  C   UNL     1      -2.855  -0.285   0.528  1.00  0.00    -0.035 A 
ATOM     14  C   UNL     1      -1.531   0.201   0.543  1.00  0.00     0.016 A 
ATOM     15  C   UNL     1      -3.168  -1.409  -0.266  1.00  0.00     0.059 A 
ATOM     16  C   UNL     1      -2.141  -2.020  -1.008  1.00  0.00     0.014 A 
ATOM     17  C   UNL     1      -0.834  -1.525  -0.979  1.00  0.00     0.013 A 
BRANCH  13  18
ATOM     18  C   UNL     1      -3.891   0.447   1.354  1.00  0.00     0.033 C 
ATOM     19  C   UNL     1      -4.433   1.671   0.630  1.00  0.00     0.009 C 
ENDBRANCH  13  18
BRANCH  15  20
ATOM     20  C   UNL     1      -4.566  -1.990  -0.331  1.00  0.00     0.416 C 
ATOM     21  F   UNL     1      -5.512  -1.069  -0.663  1.00  0.00    -0.166 F 
ATOM     22  F   UNL     1      -4.963  -2.528   0.856  1.00  0.00    -0.166 F 
ATOM     23  F   UNL     1      -4.696  -2.991  -1.248  1.00  0.00    -0.166 F 
ENDBRANCH  15  20
ENDBRANCH   1  12
BRANCH  11  24
ATOM     24  O   UNL     1       0.285   2.406  -0.539  1.00  0.00    -0.502 OA
ATOM     25  H   UNL     1       0.578   3.291  -0.637  1.00  0.00     0.293 HD
ENDBRANCH  11  24
BRANCH   7  26
ATOM     26  O   UNL     1       5.512   2.223  -0.154  1.00  0.00    -0.507 OA
ATOM     27  H   UNL     1       6.439   2.348  -0.107  1.00  0.00     0.293 HD
ENDBRANCH   7  26
TORSDOF 5
