REMARK SMILES C[NH+]1CCN(c2ccc(-c3oc4cccc(O)c4c(=O)c3O)cc2C(F)(F)F)CC1
REMARK SMILES IDX 10 1 11 2 12 3 13 4 14 5 15 6 16 7 18 8 19 9 20 10 21 11
REMARK SMILES IDX 9 12 6 13 7 14 24 15 8 16 23 17 5 18 2 19 3 20 30 21 4 22
REMARK SMILES IDX 29 23 1 24 25 26 26 27 27 28 28 29 22 30 17 32
REMARK H PARENT 2 25 22 31 17 33
ROOT
ATOM      1  C   UNL     1       2.731   0.206  -0.492  1.00  0.00     0.180 A 
ATOM      2  O   UNL     1       3.312  -0.807   0.263  1.00  0.00    -0.452 OA
ATOM      3  C   UNL     1       4.679  -0.915   0.288  1.00  0.00     0.142 A 
ATOM      4  C   UNL     1       5.218  -1.953   1.049  1.00  0.00     0.048 A 
ATOM      5  C   UNL     1       6.604  -2.119   1.117  1.00  0.00     0.008 A 
ATOM      6  C   UNL     1       7.448  -1.248   0.426  1.00  0.00     0.047 A 
ATOM      7  C   UNL     1       6.907  -0.214  -0.333  1.00  0.00     0.130 A 
ATOM      8  C   UNL     1       5.521  -0.048  -0.401  1.00  0.00     0.110 A 
ATOM      9  C   UNL     1       4.912   1.027  -1.186  1.00  0.00     0.238 A 
ATOM     10  O   UNL     1       5.587   1.837  -1.816  1.00  0.00    -0.285 OA
ATOM     11  C   UNL     1       3.433   1.112  -1.198  1.00  0.00     0.208 A 
ENDROOT
BRANCH   1  12
ATOM     12  C   UNL     1       1.255   0.201  -0.420  1.00  0.00     0.022 A 
ATOM     13  C   UNL     1      -1.578   0.126  -0.233  1.00  0.00     0.049 A 
ATOM     14  C   UNL     1      -0.934   0.270  -1.471  1.00  0.00     0.027 A 
ATOM     15  C   UNL     1      -0.792   0.014   0.926  1.00  0.00     0.080 A 
ATOM     16  C   UNL     1       0.460   0.303  -1.565  1.00  0.00     0.014 A 
ATOM     17  C   UNL     1       0.615   0.049   0.818  1.00  0.00     0.027 A 
BRANCH  13  18
ATOM     18  N   UNL     1      -2.978   0.096  -0.120  1.00  0.00    -0.360 N 
ATOM     19  N   UNL     1      -5.802   0.186  -0.886  1.00  0.00    -0.334 N 
ATOM     20  C   UNL     1      -5.138   1.312  -0.188  1.00  0.00     0.283 C 
ATOM     21  C   UNL     1      -5.124  -1.080  -0.521  1.00  0.00     0.283 C 
ATOM     22  C   UNL     1      -3.621   1.381  -0.484  1.00  0.00     0.178 C 
ATOM     23  C   UNL     1      -3.608  -1.046  -0.825  1.00  0.00     0.178 C 
ATOM     24  C   UNL     1      -7.219   0.129  -0.534  1.00  0.00     0.332 C 
ATOM     25  H   UNL     1      -5.734   0.327  -1.894  1.00  0.00     0.347 HD
ENDBRANCH  13  18
BRANCH  15  26
ATOM     26  C   UNL     1      -1.435  -0.146   2.282  1.00  0.00     0.418 C 
ATOM     27  F   UNL     1      -0.516  -0.240   3.293  1.00  0.00    -0.166 F 
ATOM     28  F   UNL     1      -2.195  -1.274   2.399  1.00  0.00    -0.166 F 
ATOM     29  F   UNL     1      -2.236   0.900   2.637  1.00  0.00    -0.166 F 
ENDBRANCH  15  26
ENDBRANCH   1  12
BRANCH  11  30
ATOM     30  O   UNL     1       2.868   2.140  -1.929  1.00  0.00    -0.502 OA
ATOM     31  H   UNL     1       3.416   2.738  -2.398  1.00  0.00     0.293 HD
ENDBRANCH  11  30
BRANCH   7  32
ATOM     32  O   UNL     1       7.791   0.603  -0.984  1.00  0.00    -0.507 OA
ATOM     33  H   UNL     1       8.713   0.451  -0.907  1.00  0.00     0.293 HD
ENDBRANCH   7  32
TORSDOF 5
