REMARK SMILES C=Cc1cc(-c2oc3cccc(O)c3c(=O)c2O)ccc1CF
REMARK SMILES IDX 6 1 7 2 8 3 9 4 10 5 11 6 12 7 14 8 15 9 16 10 17 11 5 12
REMARK SMILES IDX 3 13 4 14 21 15 20 16 19 17 2 18 1 19 22 20 23 21 18 22
REMARK SMILES IDX 13 24
REMARK H PARENT 18 23 13 25
ROOT
ATOM      1  C   UNL     1      -0.688   0.604   0.203  1.00  0.00     0.180 A 
ATOM      2  O   UNL     1      -1.097  -0.487  -0.556  1.00  0.00    -0.452 OA
ATOM      3  C   UNL     1      -2.431  -0.638  -0.835  1.00  0.00     0.142 A 
ATOM      4  C   UNL     1      -2.796  -1.739  -1.611  1.00  0.00     0.048 A 
ATOM      5  C   UNL     1      -4.139  -1.952  -1.930  1.00  0.00     0.008 A 
ATOM      6  C   UNL     1      -5.116  -1.065  -1.473  1.00  0.00     0.047 A 
ATOM      7  C   UNL     1      -4.749   0.033  -0.699  1.00  0.00     0.130 A 
ATOM      8  C   UNL     1      -3.405   0.246  -0.380  1.00  0.00     0.110 A 
ATOM      9  C   UNL     1      -2.978   1.387   0.431  1.00  0.00     0.238 A 
ATOM     10  O   UNL     1      -3.778   2.206   0.876  1.00  0.00    -0.285 OA
ATOM     11  C   UNL     1      -1.529   1.526   0.706  1.00  0.00     0.208 A 
ENDROOT
BRANCH   1  12
ATOM     12  C   UNL     1       0.773   0.635   0.422  1.00  0.00     0.022 A 
ATOM     13  C   UNL     1       2.838  -0.545   1.003  1.00  0.00    -0.020 A 
ATOM     14  C   UNL     1       1.446  -0.533   0.811  1.00  0.00     0.020 A 
ATOM     15  C   UNL     1       3.582   0.630   0.798  1.00  0.00    -0.010 A 
ATOM     16  C   UNL     1       2.910   1.795   0.399  1.00  0.00     0.008 A 
ATOM     17  C   UNL     1       1.525   1.796   0.211  1.00  0.00     0.012 A 
BRANCH  13  18
ATOM     18  C   UNL     1       3.462  -1.808   1.409  1.00  0.00     0.000 C 
ATOM     19  C   UNL     1       4.046  -2.624   0.524  1.00  0.00     0.009 C 
ENDBRANCH  13  18
BRANCH  15  20
ATOM     20  C   UNL     1       5.077   0.662   0.991  1.00  0.00     0.250 C 
ATOM     21  F   UNL     1       5.616   1.909   0.851  1.00  0.00    -0.246 F 
ENDBRANCH  15  20
ENDBRANCH   1  12
BRANCH  11  22
ATOM     22  O   UNL     1      -1.136   2.598   1.485  1.00  0.00    -0.502 OA
ATOM     23  H   UNL     1      -1.775   3.205   1.804  1.00  0.00     0.293 HD
ENDBRANCH  11  22
BRANCH   7  24
ATOM     24  O   UNL     1      -5.757   0.860  -0.284  1.00  0.00    -0.507 OA
ATOM     25  H   UNL     1      -6.644   0.675  -0.523  1.00  0.00     0.293 HD
ENDBRANCH   7  24
TORSDOF 5
