REMARK SMILES CCc1ccc(-c2oc3cccc(O)c3c(=O)c2O)cc1C(F)(F)F
REMARK SMILES IDX 7 1 8 2 9 3 10 4 11 5 12 6 13 7 15 8 16 9 17 10 18 11 6 12
REMARK SMILES IDX 3 13 4 14 21 15 5 16 20 17 2 18 1 19 22 20 23 21 24 22 25 23
REMARK SMILES IDX 19 24 14 26
REMARK H PARENT 19 25 14 27
ROOT
ATOM      1  C   UNL     1      -1.004   0.296   0.465  1.00  0.00     0.180 A 
ATOM      2  O   UNL     1      -1.609  -0.956   0.478  1.00  0.00    -0.452 OA
ATOM      3  C   UNL     1      -2.978  -1.030   0.447  1.00  0.00     0.142 A 
ATOM      4  C   UNL     1      -3.543  -2.306   0.446  1.00  0.00     0.048 A 
ATOM      5  C   UNL     1      -4.932  -2.453   0.418  1.00  0.00     0.008 A 
ATOM      6  C   UNL     1      -5.754  -1.325   0.392  1.00  0.00     0.047 A 
ATOM      7  C   UNL     1      -5.188  -0.053   0.393  1.00  0.00     0.130 A 
ATOM      8  C   UNL     1      -3.798   0.094   0.420  1.00  0.00     0.110 A 
ATOM      9  C   UNL     1      -3.163   1.412   0.422  1.00  0.00     0.238 A 
ATOM     10  O   UNL     1      -3.818   2.452   0.407  1.00  0.00    -0.285 OA
ATOM     11  C   UNL     1      -1.683   1.458   0.444  1.00  0.00     0.208 A 
ENDROOT
BRANCH   1  12
ATOM     12  C   UNL     1       0.472   0.223   0.501  1.00  0.00     0.022 A 
ATOM     13  C   UNL     1       3.300   0.027   0.573  1.00  0.00    -0.036 A 
ATOM     14  C   UNL     1       2.498  -0.728   1.446  1.00  0.00     0.005 A 
ATOM     15  C   UNL     1       2.679   0.882  -0.363  1.00  0.00     0.059 A 
ATOM     16  C   UNL     1       1.105  -0.632   1.408  1.00  0.00     0.012 A 
ATOM     17  C   UNL     1       1.270   0.965  -0.382  1.00  0.00     0.025 A 
BRANCH  13  18
ATOM     18  C   UNL     1       4.802  -0.135   0.663  1.00  0.00     0.033 C 
ATOM     19  C   UNL     1       5.291  -1.354  -0.106  1.00  0.00     0.009 C 
ENDBRANCH  13  18
BRANCH  15  20
ATOM     20  C   UNL     1       3.473   1.728  -1.335  1.00  0.00     0.416 C 
ATOM     21  F   UNL     1       2.700   2.382  -2.250  1.00  0.00    -0.166 F 
ATOM     22  F   UNL     1       4.362   1.001  -2.069  1.00  0.00    -0.166 F 
ATOM     23  F   UNL     1       4.202   2.696  -0.713  1.00  0.00    -0.166 F 
ENDBRANCH  15  20
ENDBRANCH   1  12
BRANCH  11  24
ATOM     24  O   UNL     1      -1.090   2.707   0.459  1.00  0.00    -0.502 OA
ATOM     25  H   UNL     1      -1.622   3.478   0.443  1.00  0.00     0.293 HD
ENDBRANCH  11  24
BRANCH   7  26
ATOM     26  O   UNL     1      -6.052   1.008   0.366  1.00  0.00    -0.507 OA
ATOM     27  H   UNL     1      -6.976   0.859   0.348  1.00  0.00     0.293 HD
ENDBRANCH   7  26
TORSDOF 5
