REMARK SMILES Cc1ccc(-c2oc3cccc(O)c3c(=O)c2O)cc1C(F)F
REMARK SMILES IDX 6 1 7 2 8 3 9 4 10 5 11 6 12 7 14 8 15 9 16 10 17 11 5 12
REMARK SMILES IDX 2 13 3 14 20 15 4 16 19 17 1 18 21 19 22 20 23 21 18 22
REMARK SMILES IDX 13 24
REMARK H PARENT 18 23 13 25
ROOT
ATOM      1  C   UNL     1      -0.498   0.078  -0.239  1.00  0.00     0.180 A 
ATOM      2  O   UNL     1      -1.342   0.332   0.835  1.00  0.00    -0.452 OA
ATOM      3  C   UNL     1      -2.694   0.173   0.666  1.00  0.00     0.142 A 
ATOM      4  C   UNL     1      -3.505   0.421   1.774  1.00  0.00     0.048 A 
ATOM      5  C   UNL     1      -4.890   0.281   1.669  1.00  0.00     0.008 A 
ATOM      6  C   UNL     1      -5.465  -0.107   0.457  1.00  0.00     0.047 A 
ATOM      7  C   UNL     1      -4.654  -0.354  -0.647  1.00  0.00     0.130 A 
ATOM      8  C   UNL     1      -3.268  -0.214  -0.542  1.00  0.00     0.110 A 
ATOM      9  C   UNL     1      -2.380  -0.464  -1.678  1.00  0.00     0.238 A 
ATOM     10  O   UNL     1      -2.809  -0.800  -2.780  1.00  0.00    -0.285 OA
ATOM     11  C   UNL     1      -0.924  -0.296  -1.460  1.00  0.00     0.208 A 
ENDROOT
BRANCH   1  12
ATOM     12  C   UNL     1       0.928   0.286   0.087  1.00  0.00     0.022 A 
ATOM     13  C   UNL     1       3.647   0.703   0.761  1.00  0.00    -0.042 A 
ATOM     14  C   UNL     1       2.668   1.650   1.096  1.00  0.00     0.004 A 
ATOM     15  C   UNL     1       3.259  -0.484   0.105  1.00  0.00     0.021 A 
ATOM     16  C   UNL     1       1.327   1.443   0.764  1.00  0.00     0.012 A 
ATOM     17  C   UNL     1       1.903  -0.671  -0.228  1.00  0.00     0.022 A 
ATOM     18  C   UNL     1       5.077   0.963   1.150  1.00  0.00     0.045 C 
BRANCH  15  19
ATOM     19  C   UNL     1       4.263  -1.544  -0.288  1.00  0.00     0.373 C 
ATOM     20  F   UNL     1       3.690  -2.728  -0.648  1.00  0.00    -0.205 F 
ATOM     21  F   UNL     1       5.134  -1.856   0.712  1.00  0.00    -0.205 F 
ENDBRANCH  15  19
ENDBRANCH   1  12
BRANCH  11  22
ATOM     22  O   UNL     1      -0.094  -0.521  -2.542  1.00  0.00    -0.502 OA
ATOM     23  H   UNL     1      -0.457  -0.780  -3.366  1.00  0.00     0.293 HD
ENDBRANCH  11  22
BRANCH   7  24
ATOM     24  O   UNL     1      -5.282  -0.729  -1.803  1.00  0.00    -0.507 OA
ATOM     25  H   UNL     1      -6.216  -0.809  -1.824  1.00  0.00     0.293 HD
ENDBRANCH   7  24
TORSDOF 4
