REMARK SMILES C=Cc1ccc(-c2oc3cccc(O)c3c(=O)c2O)cc1C
REMARK SMILES IDX 7 1 8 2 9 3 10 4 11 5 12 6 13 7 15 8 16 9 17 10 18 11 6 12
REMARK SMILES IDX 3 13 4 14 21 15 5 16 20 17 22 18 2 19 1 20 19 21 14 23
REMARK H PARENT 19 22 14 24
ROOT
ATOM      1  C   UNL     1       0.664   0.399  -0.048  1.00  0.00     0.180 A 
ATOM      2  O   UNL     1       1.522  -0.617  -0.454  1.00  0.00    -0.452 OA
ATOM      3  C   UNL     1       2.863  -0.495  -0.197  1.00  0.00     0.142 A 
ATOM      4  C   UNL     1       3.685  -1.546  -0.608  1.00  0.00     0.048 A 
ATOM      5  C   UNL     1       5.061  -1.484  -0.378  1.00  0.00     0.008 A 
ATOM      6  C   UNL     1       5.615  -0.373   0.263  1.00  0.00     0.047 A 
ATOM      7  C   UNL     1       4.792   0.673   0.672  1.00  0.00     0.130 A 
ATOM      8  C   UNL     1       3.415   0.611   0.442  1.00  0.00     0.110 A 
ATOM      9  C   UNL     1       2.515   1.688   0.856  1.00  0.00     0.238 A 
ATOM     10  O   UNL     1       2.928   2.701   1.418  1.00  0.00    -0.285 OA
ATOM     11  C   UNL     1       1.071   1.522   0.573  1.00  0.00     0.208 A 
ENDROOT
BRANCH   1  12
ATOM     12  C   UNL     1      -0.748   0.130  -0.393  1.00  0.00     0.022 A 
ATOM     13  C   UNL     1      -3.436  -0.454  -1.075  1.00  0.00    -0.023 A 
ATOM     14  C   UNL     1      -2.404  -0.611  -2.011  1.00  0.00     0.009 A 
ATOM     15  C   UNL     1      -3.122   0.004   0.219  1.00  0.00    -0.043 A 
ATOM     16  C   UNL     1      -1.077  -0.330  -1.673  1.00  0.00     0.013 A 
ATOM     17  C   UNL     1      -1.780   0.287   0.544  1.00  0.00     0.016 A 
ATOM     18  C   UNL     1      -4.181   0.206   1.269  1.00  0.00     0.045 C 
BRANCH  13  19
ATOM     19  C   UNL     1      -4.825  -0.723  -1.474  1.00  0.00     0.000 C 
ATOM     20  C   UNL     1      -5.213  -1.850  -2.084  1.00  0.00     0.009 C 
ENDBRANCH  13  19
ENDBRANCH   1  12
BRANCH  11  21
ATOM     21  O   UNL     1       0.232   2.551   0.956  1.00  0.00    -0.502 OA
ATOM     22  H   UNL     1       0.583   3.307   1.385  1.00  0.00     0.293 HD
ENDBRANCH  11  21
BRANCH   7  23
ATOM     23  O   UNL     1       5.400   1.730   1.292  1.00  0.00    -0.507 OA
ATOM     24  H   UNL     1       6.328   1.726   1.424  1.00  0.00     0.293 HD
ENDBRANCH   7  23
TORSDOF 4
