REMARK SMILES Cc1ccc(-c2oc3cccc(O)c3c(=O)c2O)cc1Cc1ccccc1
REMARK SMILES IDX 6 1 7 2 8 3 9 4 10 5 11 6 12 7 14 8 15 9 16 10 17 11 5 12
REMARK SMILES IDX 2 13 3 14 20 15 4 16 19 17 1 18 21 19 22 20 23 21 27 22
REMARK SMILES IDX 24 23 26 24 25 25 18 26 13 28
REMARK H PARENT 18 27 13 29
ROOT
ATOM      1  C   UNL     1       1.920  -0.150   0.179  1.00  0.00     0.180 A 
ATOM      2  O   UNL     1       2.968   0.391   0.916  1.00  0.00    -0.452 OA
ATOM      3  C   UNL     1       4.257   0.120   0.532  1.00  0.00     0.142 A 
ATOM      4  C   UNL     1       5.278   0.695   1.290  1.00  0.00     0.048 A 
ATOM      5  C   UNL     1       6.612   0.458   0.955  1.00  0.00     0.008 A 
ATOM      6  C   UNL     1       6.926  -0.353  -0.137  1.00  0.00     0.047 A 
ATOM      7  C   UNL     1       5.906  -0.926  -0.892  1.00  0.00     0.130 A 
ATOM      8  C   UNL     1       4.570  -0.688  -0.556  1.00  0.00     0.110 A 
ATOM      9  C   UNL     1       3.468  -1.271  -1.323  1.00  0.00     0.238 A 
ATOM     10  O   UNL     1       3.663  -2.001  -2.292  1.00  0.00    -0.285 OA
ATOM     11  C   UNL     1       2.088  -0.950  -0.889  1.00  0.00     0.208 A 
ENDROOT
BRANCH   1  12
ATOM     12  C   UNL     1       0.592   0.226   0.709  1.00  0.00     0.022 A 
ATOM     13  C   UNL     1      -1.929   0.976   1.765  1.00  0.00    -0.048 A 
ATOM     14  C   UNL     1      -0.905   0.507   2.602  1.00  0.00     0.004 A 
ATOM     15  C   UNL     1      -1.693   1.067   0.378  1.00  0.00    -0.040 A 
ATOM     16  C   UNL     1       0.340   0.143   2.082  1.00  0.00     0.012 A 
ATOM     17  C   UNL     1      -0.428   0.699  -0.127  1.00  0.00     0.016 A 
ATOM     18  C   UNL     1      -3.259   1.321   2.377  1.00  0.00     0.044 C 
BRANCH  15  19
ATOM     19  C   UNL     1      -2.752   1.535  -0.604  1.00  0.00     0.071 C 
BRANCH  19  20
ATOM     20  C   UNL     1      -3.864   0.543  -0.867  1.00  0.00    -0.044 A 
ATOM     21  C   UNL     1      -5.205   0.946  -0.770  1.00  0.00     0.004 A 
ATOM     22  C   UNL     1      -3.584  -0.776  -1.255  1.00  0.00     0.004 A 
ATOM     23  C   UNL     1      -6.239   0.045  -1.034  1.00  0.00     0.000 A 
ATOM     24  C   UNL     1      -4.619  -1.675  -1.517  1.00  0.00     0.000 A 
ATOM     25  C   UNL     1      -5.946  -1.265  -1.405  1.00  0.00     0.000 A 
ENDBRANCH  19  20
ENDBRANCH  15  19
ENDBRANCH   1  12
BRANCH  11  26
ATOM     26  O   UNL     1       1.054  -1.517  -1.613  1.00  0.00    -0.502 OA
ATOM     27  H   UNL     1       1.243  -2.066  -2.348  1.00  0.00     0.293 HD
ENDBRANCH  11  26
BRANCH   7  28
ATOM     28  O   UNL     1       6.284  -1.710  -1.947  1.00  0.00    -0.507 OA
ATOM     29  H   UNL     1       7.193  -1.840  -2.132  1.00  0.00     0.293 HD
ENDBRANCH   7  28
TORSDOF 5
