REMARK SMILES O=c1c(O)c(-c2ccc(CF)c(C(F)(F)F)c2)oc2cccc(O)c12
REMARK SMILES IDX 1 1 2 2 3 3 5 4 18 5 19 6 20 7 21 8 22 9 23 10 25 11 4 12
REMARK SMILES IDX 6 14 7 15 17 16 8 17 12 18 9 19 13 20 14 21 15 22 16 23
REMARK SMILES IDX 10 24 11 25 24 26
REMARK H PARENT 4 13 24 27
ROOT
ATOM      1  O   UNL     1      -3.319   2.150   1.479  1.00  0.00    -0.285 OA
ATOM      2  C   UNL     1      -2.668   1.278   0.906  1.00  0.00     0.238 A 
ATOM      3  C   UNL     1      -1.221   1.466   0.652  1.00  0.00     0.208 A 
ATOM      4  C   UNL     1      -0.546   0.485   0.025  1.00  0.00     0.180 A 
ATOM      5  O   UNL     1      -1.122  -0.709  -0.393  1.00  0.00    -0.452 OA
ATOM      6  C   UNL     1      -2.462  -0.908  -0.180  1.00  0.00     0.142 A 
ATOM      7  C   UNL     1      -3.002  -2.114  -0.628  1.00  0.00     0.048 A 
ATOM      8  C   UNL     1      -4.360  -2.381  -0.441  1.00  0.00     0.008 A 
ATOM      9  C   UNL     1      -5.177  -1.443   0.193  1.00  0.00     0.047 A 
ATOM     10  C   UNL     1      -4.636  -0.240   0.639  1.00  0.00     0.130 A 
ATOM     11  C   UNL     1      -3.277   0.027   0.452  1.00  0.00     0.110 A 
ENDROOT
BRANCH   3  12
ATOM     12  O   UNL     1      -0.650   2.644   1.098  1.00  0.00    -0.502 OA
ATOM     13  H   UNL     1      -1.179   3.287   1.529  1.00  0.00     0.293 HD
ENDBRANCH   3  12
BRANCH   4  14
ATOM     14  C   UNL     1       0.901   0.560  -0.270  1.00  0.00     0.022 A 
ATOM     15  C   UNL     1       1.470   1.681  -0.882  1.00  0.00     0.012 A 
ATOM     16  C   UNL     1       1.731  -0.531   0.028  1.00  0.00     0.025 A 
ATOM     17  C   UNL     1       2.836   1.720  -1.176  1.00  0.00     0.008 A 
ATOM     18  C   UNL     1       3.112  -0.509  -0.258  1.00  0.00     0.062 A 
ATOM     19  C   UNL     1       3.670   0.633  -0.874  1.00  0.00    -0.005 A 
BRANCH  18  20
ATOM     20  C   UNL     1       3.963  -1.710   0.087  1.00  0.00     0.416 C 
ATOM     21  F   UNL     1       3.291  -2.690   0.753  1.00  0.00    -0.166 F 
ATOM     22  F   UNL     1       4.489  -2.305  -1.019  1.00  0.00    -0.166 F 
ATOM     23  F   UNL     1       5.025  -1.386   0.875  1.00  0.00    -0.166 F 
ENDBRANCH  18  20
BRANCH  19  24
ATOM     24  C   UNL     1       5.143   0.717  -1.201  1.00  0.00     0.250 C 
ATOM     25  F   UNL     1       5.480   1.848  -1.886  1.00  0.00    -0.246 F 
ENDBRANCH  19  24
ENDBRANCH   4  14
BRANCH  10  26
ATOM     26  O   UNL     1      -5.492   0.633   1.253  1.00  0.00    -0.507 OA
ATOM     27  H   UNL     1      -6.396   0.408   1.355  1.00  0.00     0.293 HD
ENDBRANCH  10  26
TORSDOF 5
