REMARK SMILES CCCCc1ccc(-c2oc3cccc(O)c3c(=O)c2O)cc1C
REMARK SMILES IDX 5 1 6 2 7 3 8 4 22 5 23 6 24 7 4 8 3 9 2 10 1 11 9 12 10 13
REMARK SMILES IDX 20 14 11 15 18 16 12 17 17 18 19 19 13 20 15 21 14 22 21 23
REMARK SMILES IDX 16 25
REMARK H PARENT 21 24 16 26
ROOT
ATOM      1  C   UNL     1       2.217   0.725  -0.374  1.00  0.00    -0.045 A 
ATOM      2  C   UNL     1       1.501   1.682   0.362  1.00  0.00     0.005 A 
ATOM      3  C   UNL     1       0.109   1.623   0.459  1.00  0.00     0.012 A 
ATOM      4  C   UNL     1      -0.608   0.608  -0.181  1.00  0.00     0.021 A 
ATOM      5  C   UNL     1       0.109  -0.357  -0.905  1.00  0.00     0.015 A 
ATOM      6  C   UNL     1       1.512  -0.317  -1.007  1.00  0.00    -0.047 A 
ATOM      7  C   UNL     1       2.212  -1.376  -1.815  1.00  0.00     0.044 C 
ENDROOT
BRANCH   1   8
ATOM      8  C   UNL     1       3.725   0.841  -0.431  1.00  0.00     0.036 C 
BRANCH   8   9
ATOM      9  C   UNL     1       4.393   0.143   0.757  1.00  0.00     0.004 C 
BRANCH   9  10
ATOM     10  C   UNL     1       5.916   0.254   0.679  1.00  0.00    -0.003 C 
ATOM     11  C   UNL     1       6.586  -0.435   1.857  1.00  0.00     0.004 C 
ENDBRANCH   9  10
ENDBRANCH   8   9
ENDBRANCH   1   8
BRANCH   4  12
ATOM     12  C   UNL     1      -2.079   0.508  -0.076  1.00  0.00     0.180 A 
ATOM     13  O   UNL     1      -2.512  -0.779   0.224  1.00  0.00    -0.452 OA
ATOM     14  C   UNL     1      -2.906   1.551  -0.271  1.00  0.00     0.208 A 
ATOM     15  C   UNL     1      -3.857  -1.014   0.352  1.00  0.00     0.142 A 
ATOM     16  C   UNL     1      -4.366   1.328  -0.151  1.00  0.00     0.238 A 
ATOM     17  C   UNL     1      -4.245  -2.316   0.667  1.00  0.00     0.048 A 
ATOM     18  C   UNL     1      -4.819  -0.024   0.179  1.00  0.00     0.110 A 
ATOM     19  O   UNL     1      -5.155   2.255  -0.326  1.00  0.00    -0.285 OA
ATOM     20  C   UNL     1      -5.601  -2.624   0.810  1.00  0.00     0.008 A 
ATOM     21  C   UNL     1      -6.175  -0.331   0.321  1.00  0.00     0.130 A 
ATOM     22  C   UNL     1      -6.566  -1.630   0.636  1.00  0.00     0.047 A 
BRANCH  14  23
ATOM     23  O   UNL     1      -2.490   2.829  -0.597  1.00  0.00    -0.502 OA
ATOM     24  H   UNL     1      -3.122   3.510  -0.719  1.00  0.00     0.293 HD
ENDBRANCH  14  23
BRANCH  21  25
ATOM     25  O   UNL     1      -7.172   0.593   0.164  1.00  0.00    -0.507 OA
ATOM     26  H   UNL     1      -8.067   0.339   0.269  1.00  0.00     0.293 HD
ENDBRANCH  21  25
ENDBRANCH   4  12
TORSDOF 6
