REMARK SMILES Cc1cc(-c2oc3cccc(O)c3c(=O)c2O)ccc1CC(C)C
REMARK SMILES IDX 1 1 2 2 3 3 4 4 18 5 19 6 20 7 21 8 22 9 23 10 24 11 5 12
REMARK SMILES IDX 6 13 16 14 7 15 14 16 8 17 13 18 15 19 9 20 11 21 10 22
REMARK SMILES IDX 17 23 12 25
REMARK H PARENT 17 24 12 26
ROOT
ATOM      1  C   UNL     1      -1.934   0.966   2.592  1.00  0.00     0.044 C 
ATOM      2  C   UNL     1      -1.481   0.675   1.188  1.00  0.00    -0.047 A 
ATOM      3  C   UNL     1      -0.127   0.358   0.968  1.00  0.00     0.015 A 
ATOM      4  C   UNL     1       0.370   0.079  -0.315  1.00  0.00     0.021 A 
ATOM      5  C   UNL     1      -0.514   0.142  -1.395  1.00  0.00     0.012 A 
ATOM      6  C   UNL     1      -1.860   0.457  -1.195  1.00  0.00     0.005 A 
ATOM      7  C   UNL     1      -2.363   0.722   0.090  1.00  0.00    -0.045 A 
ENDROOT
BRANCH   7   8
ATOM      8  C   UNL     1      -3.836   1.053   0.230  1.00  0.00     0.038 C 
BRANCH   8   9
ATOM      9  C   UNL     1      -4.775  -0.142  -0.035  1.00  0.00    -0.013 C 
ATOM     10  C   UNL     1      -6.226   0.343  -0.094  1.00  0.00     0.008 C 
ATOM     11  C   UNL     1      -4.640  -1.231   1.032  1.00  0.00     0.008 C 
ENDBRANCH   8   9
ENDBRANCH   7   8
BRANCH   4  12
ATOM     12  C   UNL     1       1.805  -0.225  -0.500  1.00  0.00     0.180 A 
ATOM     13  O   UNL     1       2.635   0.653   0.188  1.00  0.00    -0.452 OA
ATOM     14  C   UNL     1       2.252  -1.256  -1.240  1.00  0.00     0.208 A 
ATOM     15  C   UNL     1       3.994   0.485   0.103  1.00  0.00     0.142 A 
ATOM     16  C   UNL     1       3.714  -1.471  -1.343  1.00  0.00     0.238 A 
ATOM     17  C   UNL     1       4.790   1.397   0.798  1.00  0.00     0.048 A 
ATOM     18  C   UNL     1       4.587  -0.538  -0.631  1.00  0.00     0.110 A 
ATOM     19  O   UNL     1       4.162  -2.405  -2.006  1.00  0.00    -0.285 OA
ATOM     20  C   UNL     1       6.181   1.281   0.755  1.00  0.00     0.008 A 
ATOM     21  C   UNL     1       5.979  -0.654  -0.673  1.00  0.00     0.130 A 
ATOM     22  C   UNL     1       6.776   0.255   0.019  1.00  0.00     0.047 A 
BRANCH  14  23
ATOM     23  O   UNL     1       1.436  -2.152  -1.906  1.00  0.00    -0.502 OA
ATOM     24  H   UNL     1       1.815  -2.849  -2.405  1.00  0.00     0.293 HD
ENDBRANCH  14  23
BRANCH  21  25
ATOM     25  O   UNL     1       6.627  -1.635  -1.373  1.00  0.00    -0.507 OA
ATOM     26  H   UNL     1       7.563  -1.672  -1.371  1.00  0.00     0.293 HD
ENDBRANCH  21  25
ENDBRANCH   4  12
TORSDOF 5
