REMARK SMILES Cc1ccc(-c2oc3cccc(O)c3c(=O)c2O)cc1C(F)(F)F
REMARK SMILES IDX 6 1 7 2 8 3 9 4 10 5 11 6 12 7 14 8 15 9 16 10 17 11 5 12
REMARK SMILES IDX 2 13 3 14 20 15 4 16 19 17 1 18 21 19 22 20 23 21 24 22
REMARK SMILES IDX 18 23 13 25
REMARK H PARENT 18 24 13 26
ROOT
ATOM      1  C   UNL     1       0.516   0.120   0.231  1.00  0.00     0.180 A 
ATOM      2  O   UNL     1       1.271  -0.939  -0.259  1.00  0.00    -0.452 OA
ATOM      3  C   UNL     1       2.639  -0.834  -0.257  1.00  0.00     0.142 A 
ATOM      4  C   UNL     1       3.358  -1.914  -0.771  1.00  0.00     0.048 A 
ATOM      5  C   UNL     1       4.754  -1.872  -0.798  1.00  0.00     0.008 A 
ATOM      6  C   UNL     1       5.430  -0.751  -0.310  1.00  0.00     0.047 A 
ATOM      7  C   UNL     1       4.710   0.325   0.202  1.00  0.00     0.130 A 
ATOM      8  C   UNL     1       3.313   0.283   0.228  1.00  0.00     0.110 A 
ATOM      9  C   UNL     1       2.519   1.392   0.758  1.00  0.00     0.238 A 
ATOM     10  O   UNL     1       3.040   2.409   1.212  1.00  0.00    -0.285 OA
ATOM     11  C   UNL     1       1.045   1.252   0.732  1.00  0.00     0.208 A 
ENDROOT
BRANCH   1  12
ATOM     12  C   UNL     1      -0.939  -0.133   0.168  1.00  0.00     0.022 A 
ATOM     13  C   UNL     1      -3.716  -0.672   0.028  1.00  0.00    -0.039 A 
ATOM     14  C   UNL     1      -2.822  -1.627   0.533  1.00  0.00     0.005 A 
ATOM     15  C   UNL     1      -3.217   0.566  -0.430  1.00  0.00     0.059 A 
ATOM     16  C   UNL     1      -1.453  -1.360   0.600  1.00  0.00     0.012 A 
ATOM     17  C   UNL     1      -1.831   0.816  -0.353  1.00  0.00     0.025 A 
ATOM     18  C   UNL     1      -5.184  -1.000  -0.032  1.00  0.00     0.045 C 
BRANCH  15  19
ATOM     19  C   UNL     1      -4.131   1.632  -0.994  1.00  0.00     0.416 C 
ATOM     20  F   UNL     1      -5.014   2.107  -0.071  1.00  0.00    -0.166 F 
ATOM     21  F   UNL     1      -3.471   2.727  -1.468  1.00  0.00    -0.166 F 
ATOM     22  F   UNL     1      -4.885   1.183  -2.037  1.00  0.00    -0.166 F 
ENDBRANCH  15  19
ENDBRANCH   1  12
BRANCH  11  23
ATOM     23  O   UNL     1       0.302   2.298   1.246  1.00  0.00    -0.502 OA
ATOM     24  H   UNL     1       0.734   3.059   1.581  1.00  0.00     0.293 HD
ENDBRANCH  11  23
BRANCH   7  25
ATOM     25  O   UNL     1       5.435   1.389   0.664  1.00  0.00    -0.507 OA
ATOM     26  H   UNL     1       6.371   1.370   0.625  1.00  0.00     0.293 HD
ENDBRANCH   7  25
TORSDOF 4
