REMARK SMILES CCc1cc(-c2oc3cccc(O)c3c(=O)c2O)ccc1CC(C)C
REMARK SMILES IDX 3 1 4 2 5 3 19 4 20 5 21 6 2 7 1 8 22 9 23 10 24 11 25 12
REMARK SMILES IDX 6 13 7 14 17 15 8 16 15 17 9 18 14 19 16 20 10 21 12 22
REMARK SMILES IDX 11 23 18 24 13 26
REMARK H PARENT 18 25 13 27
ROOT
ATOM      1  C   UNL     1      -1.456  -0.983  -0.327  1.00  0.00    -0.044 A 
ATOM      2  C   UNL     1      -0.059  -0.793  -0.295  1.00  0.00     0.016 A 
ATOM      3  C   UNL     1       0.528   0.452  -0.564  1.00  0.00     0.022 A 
ATOM      4  C   UNL     1      -0.311   1.528  -0.862  1.00  0.00     0.012 A 
ATOM      5  C   UNL     1      -1.697   1.358  -0.904  1.00  0.00     0.005 A 
ATOM      6  C   UNL     1      -2.288   0.111  -0.639  1.00  0.00    -0.045 A 
ENDROOT
BRANCH   1   7
ATOM      7  C   UNL     1      -1.985  -2.376  -0.066  1.00  0.00     0.032 C 
ATOM      8  C   UNL     1      -2.010  -3.219  -1.334  1.00  0.00     0.009 C 
ENDBRANCH   1   7
BRANCH   6   9
ATOM      9  C   UNL     1      -3.799   0.008  -0.693  1.00  0.00     0.038 C 
BRANCH   9  10
ATOM     10  C   UNL     1      -4.485   0.141   0.682  1.00  0.00    -0.013 C 
ATOM     11  C   UNL     1      -4.399   1.564   1.239  1.00  0.00     0.008 C 
ATOM     12  C   UNL     1      -5.954  -0.277   0.568  1.00  0.00     0.008 C 
ENDBRANCH   9  10
ENDBRANCH   6   9
BRANCH   3  13
ATOM     13  C   UNL     1       1.997   0.606  -0.488  1.00  0.00     0.180 A 
ATOM     14  O   UNL     1       2.543   0.021   0.649  1.00  0.00    -0.452 OA
ATOM     15  C   UNL     1       2.724   1.229  -1.434  1.00  0.00     0.208 A 
ATOM     16  C   UNL     1       3.898   0.090   0.845  1.00  0.00     0.142 A 
ATOM     17  C   UNL     1       4.192   1.312  -1.257  1.00  0.00     0.238 A 
ATOM     18  C   UNL     1       4.401  -0.498   2.006  1.00  0.00     0.048 A 
ATOM     19  C   UNL     1       4.764   0.708  -0.052  1.00  0.00     0.110 A 
ATOM     20  O   UNL     1       4.892   1.869  -2.100  1.00  0.00    -0.285 OA
ATOM     21  C   UNL     1       5.773  -0.465   2.266  1.00  0.00     0.008 A 
ATOM     22  C   UNL     1       6.137   0.741   0.207  1.00  0.00     0.130 A 
ATOM     23  C   UNL     1       6.641   0.155   1.365  1.00  0.00     0.047 A 
BRANCH  15  24
ATOM     24  O   UNL     1       2.197   1.791  -2.583  1.00  0.00    -0.502 OA
ATOM     25  H   UNL     1       2.763   2.211  -3.201  1.00  0.00     0.293 HD
ENDBRANCH  15  24
BRANCH  22  26
ATOM     26  O   UNL     1       7.042   1.330  -0.632  1.00  0.00    -0.507 OA
ATOM     27  H   UNL     1       7.954   1.326  -0.415  1.00  0.00     0.293 HD
ENDBRANCH  22  26
ENDBRANCH   3  13
TORSDOF 6
