REMARK SMILES CCN(C)c1cc(-c2oc3cccc(O)c3c(=O)c2O)ccc1C(F)(F)F
REMARK SMILES IDX 5 1 6 2 7 3 21 4 22 5 23 6 3 7 4 8 2 9 1 10 24 11 25 12
REMARK SMILES IDX 26 13 27 14 8 15 9 16 19 17 10 18 17 19 11 20 16 21 18 22
REMARK SMILES IDX 12 23 14 24 13 25 20 26 15 28
REMARK H PARENT 20 27 15 29
ROOT
ATOM      1  C   UNL     1      -2.240   0.294   0.668  1.00  0.00     0.049 A 
ATOM      2  C   UNL     1      -1.009   0.151  -0.003  1.00  0.00     0.038 A 
ATOM      3  C   UNL     1       0.213   0.145   0.686  1.00  0.00     0.023 A 
ATOM      4  C   UNL     1       0.190   0.264   2.079  1.00  0.00     0.013 A 
ATOM      5  C   UNL     1      -1.020   0.403   2.761  1.00  0.00     0.016 A 
ATOM      6  C   UNL     1      -2.244   0.421   2.068  1.00  0.00     0.079 A 
ENDROOT
BRANCH   1   7
ATOM      7  N   UNL     1      -3.467   0.305  -0.035  1.00  0.00    -0.374 N 
ATOM      8  C   UNL     1      -3.804  -1.036  -0.531  1.00  0.00     0.143 C 
BRANCH   7   9
ATOM      9  C   UNL     1      -3.534   1.378  -1.046  1.00  0.00     0.113 C 
ATOM     10  C   UNL     1      -4.980   1.793  -1.281  1.00  0.00     0.027 C 
ENDBRANCH   7   9
ENDBRANCH   1   7
BRANCH   6  11
ATOM     11  C   UNL     1      -3.538   0.581   2.829  1.00  0.00     0.418 C 
ATOM     12  F   UNL     1      -4.391  -0.475   2.689  1.00  0.00    -0.166 F 
ATOM     13  F   UNL     1      -3.341   0.689   4.181  1.00  0.00    -0.166 F 
ATOM     14  F   UNL     1      -4.242   1.699   2.492  1.00  0.00    -0.166 F 
ENDBRANCH   6  11
BRANCH   3  15
ATOM     15  C   UNL     1       1.501  -0.025  -0.018  1.00  0.00     0.180 A 
ATOM     16  O   UNL     1       2.328  -0.965   0.587  1.00  0.00    -0.452 OA
ATOM     17  C   UNL     1       1.840   0.676  -1.116  1.00  0.00     0.208 A 
ATOM     18  C   UNL     1       3.558  -1.220   0.035  1.00  0.00     0.142 A 
ATOM     19  C   UNL     1       3.165   0.431  -1.730  1.00  0.00     0.238 A 
ATOM     20  C   UNL     1       4.348  -2.181   0.666  1.00  0.00     0.048 A 
ATOM     21  C   UNL     1       4.029  -0.569  -1.101  1.00  0.00     0.110 A 
ATOM     22  O   UNL     1       3.512   1.054  -2.732  1.00  0.00    -0.285 OA
ATOM     23  C   UNL     1       5.612  -2.487   0.157  1.00  0.00     0.008 A 
ATOM     24  C   UNL     1       5.293  -0.875  -1.611  1.00  0.00     0.130 A 
ATOM     25  C   UNL     1       6.085  -1.833  -0.983  1.00  0.00     0.047 A 
BRANCH  17  26
ATOM     26  O   UNL     1       1.038   1.633  -1.711  1.00  0.00    -0.502 OA
ATOM     27  H   UNL     1       1.336   2.084  -2.475  1.00  0.00     0.293 HD
ENDBRANCH  17  26
BRANCH  24  28
ATOM     28  O   UNL     1       5.817  -0.273  -2.722  1.00  0.00    -0.507 OA
ATOM     29  H   UNL     1       6.671  -0.511  -3.026  1.00  0.00     0.293 HD
ENDBRANCH  24  28
ENDBRANCH   3  15
TORSDOF 6
