REMARK SMILES C=Cc1cc(-c2oc3cccc(O)c3c(=O)c2O)ccc1C
REMARK SMILES IDX 6 1 7 2 8 3 9 4 10 5 11 6 12 7 14 8 15 9 16 10 17 11 5 12
REMARK SMILES IDX 3 13 4 14 21 15 20 16 19 17 22 18 2 19 1 20 18 21 13 23
REMARK H PARENT 18 22 13 24
ROOT
ATOM      1  C   UNL     1      -0.618   0.585  -0.325  1.00  0.00     0.180 A 
ATOM      2  O   UNL     1      -1.197  -0.559   0.212  1.00  0.00    -0.452 OA
ATOM      3  C   UNL     1      -2.512  -0.831  -0.067  1.00  0.00     0.142 A 
ATOM      4  C   UNL     1      -3.057  -1.982   0.503  1.00  0.00     0.048 A 
ATOM      5  C   UNL     1      -4.390  -2.317   0.258  1.00  0.00     0.008 A 
ATOM      6  C   UNL     1      -5.178  -1.502  -0.557  1.00  0.00     0.047 A 
ATOM      7  C   UNL     1      -4.632  -0.354  -1.125  1.00  0.00     0.130 A 
ATOM      8  C   UNL     1      -3.298  -0.019  -0.879  1.00  0.00     0.110 A 
ATOM      9  C   UNL     1      -2.686   1.179  -1.456  1.00  0.00     0.238 A 
ATOM     10  O   UNL     1      -3.312   1.942  -2.189  1.00  0.00    -0.285 OA
ATOM     11  C   UNL     1      -1.267   1.448  -1.128  1.00  0.00     0.208 A 
ENDROOT
BRANCH   1  12
ATOM     12  C   UNL     1       0.801   0.744   0.060  1.00  0.00     0.022 A 
ATOM     13  C   UNL     1       3.021  -0.254   0.369  1.00  0.00    -0.023 A 
ATOM     14  C   UNL     1       1.671  -0.355  -0.014  1.00  0.00     0.020 A 
ATOM     15  C   UNL     1       3.515   0.981   0.832  1.00  0.00    -0.044 A 
ATOM     16  C   UNL     1       2.644   2.078   0.909  1.00  0.00     0.005 A 
ATOM     17  C   UNL     1       1.304   1.959   0.535  1.00  0.00     0.012 A 
ATOM     18  C   UNL     1       4.952   1.158   1.244  1.00  0.00     0.045 C 
BRANCH  13  19
ATOM     19  C   UNL     1       3.900  -1.426   0.237  1.00  0.00     0.000 C 
ATOM     20  C   UNL     1       3.597  -2.634   0.728  1.00  0.00     0.009 C 
ENDBRANCH  13  19
ENDBRANCH   1  12
BRANCH  11  21
ATOM     21  O   UNL     1      -0.694   2.574  -1.690  1.00  0.00    -0.502 OA
ATOM     22  H   UNL     1      -1.205   3.134  -2.241  1.00  0.00     0.293 HD
ENDBRANCH  11  21
BRANCH   7  23
ATOM     23  O   UNL     1      -5.460   0.398  -1.913  1.00  0.00    -0.507 OA
ATOM     24  H   UNL     1      -6.348   0.132  -2.049  1.00  0.00     0.293 HD
ENDBRANCH   7  23
TORSDOF 4
