REMARK SMILES CCc1cc(-c2oc3cccc(O)c3c(=O)c2O)ccc1N1CC[NH+](C)CC1
REMARK SMILES IDX 6 1 7 2 8 3 9 4 10 5 11 6 12 7 14 8 15 9 16 10 17 11 5 12
REMARK SMILES IDX 3 13 4 14 21 15 20 16 19 17 2 18 1 19 22 20 23 21 28 22
REMARK SMILES IDX 24 23 27 24 25 25 26 26 18 28 13 30
REMARK H PARENT 25 27 18 29 13 31
ROOT
ATOM      1  C   UNL     1      -2.834   0.136  -0.490  1.00  0.00     0.180 A 
ATOM      2  O   UNL     1      -3.487  -0.424   0.602  1.00  0.00    -0.452 OA
ATOM      3  C   UNL     1      -4.857  -0.387   0.647  1.00  0.00     0.142 A 
ATOM      4  C   UNL     1      -5.470  -0.946   1.768  1.00  0.00     0.048 A 
ATOM      5  C   UNL     1      -6.863  -0.943   1.876  1.00  0.00     0.008 A 
ATOM      6  C   UNL     1      -7.641  -0.381   0.862  1.00  0.00     0.047 A 
ATOM      7  C   UNL     1      -7.027   0.177  -0.256  1.00  0.00     0.130 A 
ATOM      8  C   UNL     1      -5.634   0.174  -0.363  1.00  0.00     0.110 A 
ATOM      9  C   UNL     1      -4.948   0.750  -1.521  1.00  0.00     0.238 A 
ATOM     10  O   UNL     1      -5.565   1.256  -2.456  1.00  0.00    -0.285 OA
ATOM     11  C   UNL     1      -3.468   0.703  -1.534  1.00  0.00     0.208 A 
ENDROOT
BRANCH   1  12
ATOM     12  C   UNL     1      -1.363   0.023  -0.400  1.00  0.00     0.022 A 
ATOM     13  C   UNL     1       0.879   1.009  -0.526  1.00  0.00    -0.024 A 
ATOM     14  C   UNL     1      -0.522   1.117  -0.637  1.00  0.00     0.018 A 
ATOM     15  C   UNL     1       1.457  -0.219  -0.145  1.00  0.00     0.040 A 
ATOM     16  C   UNL     1       0.609  -1.311   0.094  1.00  0.00     0.027 A 
ATOM     17  C   UNL     1      -0.779  -1.192  -0.027  1.00  0.00     0.014 A 
BRANCH  13  18
ATOM     18  C   UNL     1       1.724   2.236  -0.788  1.00  0.00     0.034 C 
ATOM     19  C   UNL     1       2.029   3.001   0.491  1.00  0.00     0.009 C 
ENDBRANCH  13  18
BRANCH  15  20
ATOM     20  N   UNL     1       2.857  -0.319  -0.033  1.00  0.00    -0.360 N 
ATOM     21  C   UNL     1       3.328  -0.811   1.280  1.00  0.00     0.178 C 
ATOM     22  C   UNL     1       3.451  -1.090  -1.148  1.00  0.00     0.178 C 
ATOM     23  C   UNL     1       4.873  -0.750   1.336  1.00  0.00     0.283 C 
ATOM     24  C   UNL     1       4.995  -1.039  -1.059  1.00  0.00     0.283 C 
ATOM     25  N   UNL     1       5.510  -1.524   0.244  1.00  0.00    -0.334 N 
ATOM     26  C   UNL     1       6.964  -1.395   0.302  1.00  0.00     0.332 C 
ATOM     27  H   UNL     1       5.279  -2.512   0.352  1.00  0.00     0.347 HD
ENDBRANCH  15  20
ENDBRANCH   1  12
BRANCH  11  28
ATOM     28  O   UNL     1      -2.832   1.238  -2.638  1.00  0.00    -0.502 OA
ATOM     29  H   UNL     1      -3.335   1.618  -3.331  1.00  0.00     0.293 HD
ENDBRANCH  11  28
BRANCH   7  30
ATOM     30  O   UNL     1      -7.849   0.710  -1.211  1.00  0.00    -0.507 OA
ATOM     31  H   UNL     1      -8.779   0.688  -1.094  1.00  0.00     0.293 HD
ENDBRANCH   7  30
TORSDOF 5
