REMARK SMILES Cc1cc(-c2oc3cccc(O)c3c(=O)c2O)ccc1C(F)(F)F
REMARK SMILES IDX 5 1 6 2 7 3 8 4 9 5 10 6 11 7 13 8 14 9 15 10 16 11 4 12
REMARK SMILES IDX 2 13 3 14 20 15 19 16 18 17 1 18 21 19 22 20 23 21 24 22
REMARK SMILES IDX 17 23 12 25
REMARK H PARENT 17 24 12 26
ROOT
ATOM      1  C   UNL     1       0.511   0.339   0.310  1.00  0.00     0.180 A 
ATOM      2  O   UNL     1       1.162  -0.592  -0.491  1.00  0.00    -0.452 OA
ATOM      3  C   UNL     1       2.522  -0.501  -0.642  1.00  0.00     0.142 A 
ATOM      4  C   UNL     1       3.137  -1.464  -1.443  1.00  0.00     0.048 A 
ATOM      5  C   UNL     1       4.519  -1.428  -1.640  1.00  0.00     0.008 A 
ATOM      6  C   UNL     1       5.286  -0.429  -1.037  1.00  0.00     0.047 A 
ATOM      7  C   UNL     1       4.670   0.532  -0.239  1.00  0.00     0.130 A 
ATOM      8  C   UNL     1       3.287   0.494  -0.041  1.00  0.00     0.110 A 
ATOM      9  C   UNL     1       2.601   1.484   0.790  1.00  0.00     0.238 A 
ATOM     10  O   UNL     1       3.205   2.398   1.348  1.00  0.00    -0.285 OA
ATOM     11  C   UNL     1       1.133   1.352   0.942  1.00  0.00     0.208 A 
ENDROOT
BRANCH   1  12
ATOM     12  C   UNL     1      -0.949   0.118   0.379  1.00  0.00     0.022 A 
ATOM     13  C   UNL     1      -3.060  -0.376  -0.770  1.00  0.00    -0.038 A 
ATOM     14  C   UNL     1      -1.673  -0.136  -0.796  1.00  0.00     0.016 A 
ATOM     15  C   UNL     1      -3.743  -0.364   0.465  1.00  0.00     0.058 A 
ATOM     16  C   UNL     1      -3.012  -0.121   1.640  1.00  0.00     0.014 A 
ATOM     17  C   UNL     1      -1.635   0.113   1.598  1.00  0.00     0.013 A 
ATOM     18  C   UNL     1      -3.783  -0.629  -2.066  1.00  0.00     0.045 C 
BRANCH  15  19
ATOM     19  C   UNL     1      -5.234  -0.612   0.551  1.00  0.00     0.416 C 
ATOM     20  F   UNL     1      -5.961   0.272  -0.188  1.00  0.00    -0.166 F 
ATOM     21  F   UNL     1      -5.729  -0.523   1.819  1.00  0.00    -0.166 F 
ATOM     22  F   UNL     1      -5.587  -1.852   0.108  1.00  0.00    -0.166 F 
ENDBRANCH  15  19
ENDBRANCH   1  12
BRANCH  11  23
ATOM     23  O   UNL     1       0.492   2.300   1.718  1.00  0.00    -0.502 OA
ATOM     24  H   UNL     1       0.987   2.980   2.130  1.00  0.00     0.293 HD
ENDBRANCH  11  23
BRANCH   7  25
ATOM     25  O   UNL     1       5.480   1.482   0.320  1.00  0.00    -0.507 OA
ATOM     26  H   UNL     1       6.403   1.465   0.158  1.00  0.00     0.293 HD
ENDBRANCH   7  25
TORSDOF 4
