REMARK SMILES Cc1cc(-c2oc3cccc(O)c3c(=O)c2O)ccc1C(C)C
REMARK SMILES IDX 5 1 6 2 7 3 8 4 9 5 10 6 11 7 13 8 14 9 15 10 16 11 4 12
REMARK SMILES IDX 2 13 3 14 20 15 19 16 18 17 1 18 21 19 22 20 23 21 17 22
REMARK SMILES IDX 12 24
REMARK H PARENT 17 23 12 25
ROOT
ATOM      1  C   UNL     1       1.383   0.433  -0.106  1.00  0.00     0.180 A 
ATOM      2  O   UNL     1       2.016  -0.804  -0.056  1.00  0.00    -0.452 OA
ATOM      3  C   UNL     1       3.386  -0.850  -0.078  1.00  0.00     0.142 A 
ATOM      4  C   UNL     1       3.978  -2.113  -0.041  1.00  0.00     0.048 A 
ATOM      5  C   UNL     1       5.370  -2.231  -0.058  1.00  0.00     0.008 A 
ATOM      6  C   UNL     1       6.168  -1.086  -0.112  1.00  0.00     0.047 A 
ATOM      7  C   UNL     1       5.575   0.173  -0.149  1.00  0.00     0.130 A 
ATOM      8  C   UNL     1       4.182   0.290  -0.133  1.00  0.00     0.110 A 
ATOM      9  C   UNL     1       3.518   1.594  -0.170  1.00  0.00     0.238 A 
ATOM     10  O   UNL     1       4.152   2.646  -0.211  1.00  0.00    -0.285 OA
ATOM     11  C   UNL     1       2.037   1.609  -0.156  1.00  0.00     0.208 A 
ENDROOT
BRANCH   1  12
ATOM     12  C   UNL     1      -0.091   0.326  -0.076  1.00  0.00     0.021 A 
ATOM     13  C   UNL     1      -2.111  -0.685   0.893  1.00  0.00    -0.047 A 
ATOM     14  C   UNL     1      -0.711  -0.531   0.845  1.00  0.00     0.015 A 
ATOM     15  C   UNL     1      -2.920   0.036  -0.011  1.00  0.00    -0.042 A 
ATOM     16  C   UNL     1      -2.290   0.887  -0.938  1.00  0.00     0.005 A 
ATOM     17  C   UNL     1      -0.899   1.027  -0.973  1.00  0.00     0.012 A 
ATOM     18  C   UNL     1      -2.691  -1.621   1.919  1.00  0.00     0.044 C 
BRANCH  15  19
ATOM     19  C   UNL     1      -4.440  -0.080  -0.013  1.00  0.00     0.013 C 
ATOM     20  C   UNL     1      -4.958  -0.653  -1.336  1.00  0.00     0.012 C 
ATOM     21  C   UNL     1      -5.109   1.263   0.299  1.00  0.00     0.012 C 
ENDBRANCH  15  19
ENDBRANCH   1  12
BRANCH  11  22
ATOM     22  O   UNL     1       1.421   2.846  -0.179  1.00  0.00    -0.502 OA
ATOM     23  H   UNL     1       1.938   3.627  -0.214  1.00  0.00     0.293 HD
ENDBRANCH  11  22
BRANCH   7  24
ATOM     24  O   UNL     1       6.415   1.251  -0.201  1.00  0.00    -0.507 OA
ATOM     25  H   UNL     1       7.343   1.121  -0.210  1.00  0.00     0.293 HD
ENDBRANCH   7  24
TORSDOF 4
