REMARK SMILES CCc1cc(-c2oc3cccc(O)c3c(=O)c2O)ccc1C(C)(C)C
REMARK SMILES IDX 6 1 7 2 8 3 9 4 10 5 11 6 12 7 14 8 15 9 16 10 17 11 5 12
REMARK SMILES IDX 3 13 4 14 21 15 20 16 19 17 2 18 1 19 22 20 23 21 24 22
REMARK SMILES IDX 25 23 18 24 13 26
REMARK H PARENT 18 25 13 27
ROOT
ATOM      1  C   UNL     1       1.897  -0.186  -0.345  1.00  0.00     0.180 A 
ATOM      2  O   UNL     1       2.720   0.831   0.127  1.00  0.00    -0.452 OA
ATOM      3  C   UNL     1       4.077   0.706  -0.017  1.00  0.00     0.142 A 
ATOM      4  C   UNL     1       4.866   1.743   0.484  1.00  0.00     0.048 A 
ATOM      5  C   UNL     1       6.256   1.680   0.368  1.00  0.00     0.008 A 
ATOM      6  C   UNL     1       6.858   0.581  -0.249  1.00  0.00     0.047 A 
ATOM      7  C   UNL     1       6.069  -0.452  -0.749  1.00  0.00     0.130 A 
ATOM      8  C   UNL     1       4.678  -0.388  -0.632  1.00  0.00     0.110 A 
ATOM      9  C   UNL     1       3.812  -1.452  -1.143  1.00  0.00     0.238 A 
ATOM     10  O   UNL     1       4.266  -2.447  -1.705  1.00  0.00    -0.285 OA
ATOM     11  C   UNL     1       2.351  -1.293  -0.962  1.00  0.00     0.208 A 
ENDROOT
BRANCH   1  12
ATOM     12  C   UNL     1       0.462   0.086  -0.120  1.00  0.00     0.022 A 
ATOM     13  C   UNL     1      -1.782  -0.619   0.654  1.00  0.00    -0.044 A 
ATOM     14  C   UNL     1      -0.404  -0.872   0.412  1.00  0.00     0.016 A 
ATOM     15  C   UNL     1      -2.324   0.660   0.357  1.00  0.00    -0.039 A 
ATOM     16  C   UNL     1      -1.419   1.617  -0.164  1.00  0.00     0.005 A 
ATOM     17  C   UNL     1      -0.065   1.342  -0.397  1.00  0.00     0.012 A 
BRANCH  13  18
ATOM     18  C   UNL     1      -2.540  -1.804   1.217  1.00  0.00     0.032 C 
ATOM     19  C   UNL     1      -2.839  -2.859   0.157  1.00  0.00     0.009 C 
ENDBRANCH  13  18
BRANCH  15  20
ATOM     20  C   UNL     1      -3.802   1.081   0.589  1.00  0.00    -0.013 C 
ATOM     21  C   UNL     1      -4.152   2.481   0.003  1.00  0.00     0.016 C 
ATOM     22  C   UNL     1      -4.799   0.116  -0.092  1.00  0.00     0.016 C 
ATOM     23  C   UNL     1      -4.086   1.186   2.103  1.00  0.00     0.016 C 
ENDBRANCH  15  20
ENDBRANCH   1  12
BRANCH  11  24
ATOM     24  O   UNL     1       1.542  -2.298  -1.461  1.00  0.00    -0.502 OA
ATOM     25  H   UNL     1       1.926  -3.043  -1.880  1.00  0.00     0.293 HD
ENDBRANCH  11  24
BRANCH   7  26
ATOM     26  O   UNL     1       6.723  -1.497  -1.342  1.00  0.00    -0.507 OA
ATOM     27  H   UNL     1       7.658  -1.494  -1.396  1.00  0.00     0.293 HD
ENDBRANCH   7  26
TORSDOF 5
