REMARK SMILES Cc1cc(-c2oc3cccc(O)c3c(=O)c2O)ccc1Cc1ccccc1
REMARK SMILES IDX 5 1 6 2 7 3 8 4 9 5 10 6 11 7 13 8 14 9 15 10 16 11 4 12
REMARK SMILES IDX 2 13 3 14 20 15 19 16 18 17 1 18 21 19 22 20 23 21 27 22
REMARK SMILES IDX 24 23 26 24 25 25 17 26 12 28
REMARK H PARENT 17 27 12 29
ROOT
ATOM      1  C   UNL     1       2.099  -0.693  -0.415  1.00  0.00     0.180 A 
ATOM      2  O   UNL     1       2.525   0.489   0.179  1.00  0.00    -0.452 OA
ATOM      3  C   UNL     1       3.863   0.791   0.173  1.00  0.00     0.142 A 
ATOM      4  C   UNL     1       4.244   1.994   0.768  1.00  0.00     0.048 A 
ATOM      5  C   UNL     1       5.591   2.361   0.797  1.00  0.00     0.008 A 
ATOM      6  C   UNL     1       6.556   1.525   0.232  1.00  0.00     0.047 A 
ATOM      7  C   UNL     1       6.173   0.325  -0.361  1.00  0.00     0.130 A 
ATOM      8  C   UNL     1       4.825  -0.041  -0.391  1.00  0.00     0.110 A 
ATOM      9  C   UNL     1       4.380  -1.293  -1.004  1.00  0.00     0.238 A 
ATOM     10  O   UNL     1       5.170  -2.084  -1.516  1.00  0.00    -0.285 OA
ATOM     11  C   UNL     1       2.928  -1.585  -0.990  1.00  0.00     0.208 A 
ENDROOT
BRANCH   1  12
ATOM     12  C   UNL     1       0.635  -0.883  -0.331  1.00  0.00     0.021 A 
ATOM     13  C   UNL     1      -1.427  -0.796   1.002  1.00  0.00    -0.047 A 
ATOM     14  C   UNL     1      -0.032  -0.648   0.881  1.00  0.00     0.015 A 
ATOM     15  C   UNL     1      -2.180  -1.165  -0.131  1.00  0.00    -0.041 A 
ATOM     16  C   UNL     1      -1.510  -1.393  -1.346  1.00  0.00     0.005 A 
ATOM     17  C   UNL     1      -0.124  -1.253  -1.444  1.00  0.00     0.012 A 
ATOM     18  C   UNL     1      -2.067  -0.508   2.332  1.00  0.00     0.044 C 
BRANCH  15  19
ATOM     19  C   UNL     1      -3.690  -1.324  -0.096  1.00  0.00     0.071 C 
BRANCH  19  20
ATOM     20  C   UNL     1      -4.472  -0.036   0.046  1.00  0.00    -0.044 A 
ATOM     21  C   UNL     1      -5.484   0.069   1.012  1.00  0.00     0.004 A 
ATOM     22  C   UNL     1      -4.240   1.054  -0.806  1.00  0.00     0.004 A 
ATOM     23  C   UNL     1      -6.230   1.242   1.137  1.00  0.00     0.000 A 
ATOM     24  C   UNL     1      -4.987   2.227  -0.680  1.00  0.00     0.000 A 
ATOM     25  C   UNL     1      -5.980   2.322   0.293  1.00  0.00     0.000 A 
ENDBRANCH  19  20
ENDBRANCH  15  19
ENDBRANCH   1  12
BRANCH  11  26
ATOM     26  O   UNL     1       2.520  -2.777  -1.560  1.00  0.00    -0.502 OA
ATOM     27  H   UNL     1       3.152  -3.353  -1.944  1.00  0.00     0.293 HD
ENDBRANCH  11  26
BRANCH   7  28
ATOM     28  O   UNL     1       7.170  -0.446  -0.895  1.00  0.00    -0.507 OA
ATOM     29  H   UNL     1       8.060  -0.157  -0.851  1.00  0.00     0.293 HD
ENDBRANCH   7  28
TORSDOF 5
