REMARK SMILES C=C(F)c1ccc(-c2oc3cccc(O)c3c(=O)c2O)cc1C
REMARK SMILES IDX 8 1 9 2 10 3 11 4 12 5 13 6 14 7 16 8 17 9 18 10 19 11 7 12
REMARK SMILES IDX 4 13 5 14 22 15 6 16 21 17 23 18 2 19 1 20 3 21 20 22 15 24
REMARK H PARENT 20 23 15 25
ROOT
ATOM      1  C   UNL     1      -0.682   0.336   0.490  1.00  0.00     0.180 A 
ATOM      2  O   UNL     1      -1.371  -0.330  -0.517  1.00  0.00    -0.452 OA
ATOM      3  C   UNL     1      -2.742  -0.313  -0.505  1.00  0.00     0.142 A 
ATOM      4  C   UNL     1      -3.393  -1.007  -1.527  1.00  0.00     0.048 A 
ATOM      5  C   UNL     1      -4.789  -1.028  -1.575  1.00  0.00     0.008 A 
ATOM      6  C   UNL     1      -5.533  -0.356  -0.603  1.00  0.00     0.047 A 
ATOM      7  C   UNL     1      -4.881   0.335   0.415  1.00  0.00     0.130 A 
ATOM      8  C   UNL     1      -3.484   0.355   0.463  1.00  0.00     0.110 A 
ATOM      9  C   UNL     1      -2.760   1.069   1.516  1.00  0.00     0.238 A 
ATOM     10  O   UNL     1      -3.343   1.690   2.402  1.00  0.00    -0.285 OA
ATOM     11  C   UNL     1      -1.280   1.023   1.480  1.00  0.00     0.208 A 
ENDROOT
BRANCH   1  12
ATOM     12  C   UNL     1       0.786   0.232   0.348  1.00  0.00     0.022 A 
ATOM     13  C   UNL     1       3.596  -0.013   0.008  1.00  0.00     0.013 A 
ATOM     14  C   UNL     1       2.991  -0.232   1.258  1.00  0.00     0.012 A 
ATOM     15  C   UNL     1       2.777   0.326  -1.089  1.00  0.00    -0.040 A 
ATOM     16  C   UNL     1       1.607  -0.111   1.425  1.00  0.00     0.013 A 
ATOM     17  C   UNL     1       1.384   0.434  -0.905  1.00  0.00     0.016 A 
ATOM     18  C   UNL     1       3.341   0.558  -2.466  1.00  0.00     0.045 C 
BRANCH  13  19
ATOM     19  C   UNL     1       5.053  -0.178  -0.134  1.00  0.00     0.123 C 
ATOM     20  C   UNL     1       5.957   0.271   0.743  1.00  0.00     0.051 C 
ATOM     21  F   UNL     1       5.506  -0.799  -1.246  1.00  0.00    -0.207 F 
ENDBRANCH  13  19
ENDBRANCH   1  12
BRANCH  11  22
ATOM     22  O   UNL     1      -0.605   1.712   2.472  1.00  0.00    -0.502 OA
ATOM     23  H   UNL     1      -1.085   2.171   3.133  1.00  0.00     0.293 HD
ENDBRANCH  11  22
BRANCH   7  24
ATOM     24  O   UNL     1      -5.670   0.971   1.334  1.00  0.00    -0.507 OA
ATOM     25  H   UNL     1      -6.603   0.928   1.260  1.00  0.00     0.293 HD
ENDBRANCH   7  24
TORSDOF 4
