REMARK SMILES C=Cc1cc(-c2oc3cccc(O)c3c(=O)c2O)ccc1C(F)(F)F
REMARK SMILES IDX 6 1 7 2 8 3 9 4 10 5 11 6 12 7 14 8 15 9 16 10 17 11 5 12
REMARK SMILES IDX 3 13 4 14 21 15 20 16 19 17 2 18 1 19 22 20 23 21 24 22
REMARK SMILES IDX 25 23 18 24 13 26
REMARK H PARENT 18 25 13 27
ROOT
ATOM      1  C   UNL     1       0.655  -0.553   0.298  1.00  0.00     0.180 A 
ATOM      2  O   UNL     1       1.188   0.513  -0.417  1.00  0.00    -0.452 OA
ATOM      3  C   UNL     1       2.481   0.428  -0.867  1.00  0.00     0.142 A 
ATOM      4  C   UNL     1       2.981   1.526  -1.569  1.00  0.00     0.048 A 
ATOM      5  C   UNL     1       4.289   1.504  -2.056  1.00  0.00     0.008 A 
ATOM      6  C   UNL     1       5.098   0.386  -1.842  1.00  0.00     0.047 A 
ATOM      7  C   UNL     1       4.596  -0.709  -1.142  1.00  0.00     0.130 A 
ATOM      8  C   UNL     1       3.287  -0.686  -0.654  1.00  0.00     0.110 A 
ATOM      9  C   UNL     1       2.722  -1.815   0.087  1.00  0.00     0.238 A 
ATOM     10  O   UNL     1       3.367  -2.837   0.310  1.00  0.00    -0.285 OA
ATOM     11  C   UNL     1       1.326  -1.688   0.567  1.00  0.00     0.208 A 
ENDROOT
BRANCH   1  12
ATOM     12  C   UNL     1      -0.744  -0.323   0.716  1.00  0.00     0.022 A 
ATOM     13  C   UNL     1      -3.007   0.444   0.159  1.00  0.00    -0.013 A 
ATOM     14  C   UNL     1      -1.672   0.188  -0.205  1.00  0.00     0.020 A 
ATOM     15  C   UNL     1      -3.430   0.183   1.475  1.00  0.00     0.063 A 
ATOM     16  C   UNL     1      -2.496  -0.319   2.399  1.00  0.00     0.014 A 
ATOM     17  C   UNL     1      -1.172  -0.564   2.025  1.00  0.00     0.013 A 
BRANCH  13  18
ATOM     18  C   UNL     1      -3.930   0.960  -0.860  1.00  0.00     0.001 C 
ATOM     19  C   UNL     1      -3.733   2.126  -1.486  1.00  0.00     0.009 C 
ENDBRANCH  13  18
BRANCH  15  20
ATOM     20  C   UNL     1      -4.850   0.446   1.918  1.00  0.00     0.416 C 
ATOM     21  F   UNL     1      -5.202   1.759   1.834  1.00  0.00    -0.166 F 
ATOM     22  F   UNL     1      -5.083   0.092   3.216  1.00  0.00    -0.166 F 
ATOM     23  F   UNL     1      -5.773  -0.243   1.188  1.00  0.00    -0.166 F 
ENDBRANCH  15  20
ENDBRANCH   1  12
BRANCH  11  24
ATOM     24  O   UNL     1       0.796  -2.765   1.253  1.00  0.00    -0.502 OA
ATOM     25  H   UNL     1       1.319  -3.527   1.407  1.00  0.00     0.293 HD
ENDBRANCH  11  24
BRANCH   7  26
ATOM     26  O   UNL     1       5.441  -1.770  -0.969  1.00  0.00    -0.507 OA
ATOM     27  H   UNL     1       6.311  -1.738  -1.315  1.00  0.00     0.293 HD
ENDBRANCH   7  26
TORSDOF 5
