REMARK SMILES CCN(CC)c1cc(-c2oc3cccc(O)c3c(=O)c2O)ccc1C
REMARK SMILES IDX 6 1 7 2 8 3 22 4 23 5 24 6 25 7 3 8 2 9 1 10 4 11 5 12 9 13
REMARK SMILES IDX 10 14 20 15 11 16 18 17 12 18 17 19 19 20 13 21 15 22 14 23
REMARK SMILES IDX 21 24 16 26
REMARK H PARENT 21 25 16 27
ROOT
ATOM      1  C   UNL     1       2.068   0.329   0.415  1.00  0.00     0.040 A 
ATOM      2  C   UNL     1       0.763  -0.150   0.190  1.00  0.00     0.038 A 
ATOM      3  C   UNL     1      -0.366   0.547   0.645  1.00  0.00     0.023 A 
ATOM      4  C   UNL     1      -0.176   1.754   1.328  1.00  0.00     0.012 A 
ATOM      5  C   UNL     1       1.111   2.240   1.570  1.00  0.00     0.006 A 
ATOM      6  C   UNL     1       2.237   1.535   1.126  1.00  0.00    -0.028 A 
ATOM      7  C   UNL     1       3.612   2.078   1.407  1.00  0.00     0.046 C 
ENDROOT
BRANCH   1   8
ATOM      8  N   UNL     1       3.216  -0.382  -0.025  1.00  0.00    -0.372 N 
BRANCH   8   9
ATOM      9  C   UNL     1       3.253  -0.590  -1.487  1.00  0.00     0.113 C 
ATOM     10  C   UNL     1       3.504   0.715  -2.230  1.00  0.00     0.027 C 
ENDBRANCH   8   9
BRANCH   8  11
ATOM     11  C   UNL     1       3.391  -1.609   0.778  1.00  0.00     0.113 C 
ATOM     12  C   UNL     1       4.870  -1.947   0.904  1.00  0.00     0.027 C 
ENDBRANCH   8  11
ENDBRANCH   1   8
BRANCH   3  13
ATOM     13  C   UNL     1      -1.737   0.057   0.386  1.00  0.00     0.180 A 
ATOM     14  O   UNL     1      -2.581   1.049  -0.101  1.00  0.00    -0.452 OA
ATOM     15  C   UNL     1      -2.125  -1.210   0.620  1.00  0.00     0.208 A 
ATOM     16  C   UNL     1      -3.884   0.731  -0.385  1.00  0.00     0.142 A 
ATOM     17  C   UNL     1      -3.529  -1.583   0.334  1.00  0.00     0.238 A 
ATOM     18  C   UNL     1      -4.691   1.753  -0.885  1.00  0.00     0.048 A 
ATOM     19  C   UNL     1      -4.412  -0.542  -0.193  1.00  0.00     0.110 A 
ATOM     20  O   UNL     1      -3.923  -2.730   0.538  1.00  0.00    -0.285 OA
ATOM     21  C   UNL     1      -6.029   1.496  -1.194  1.00  0.00     0.008 A 
ATOM     22  C   UNL     1      -5.751  -0.799  -0.500  1.00  0.00     0.130 A 
ATOM     23  C   UNL     1      -6.559   0.218  -1.000  1.00  0.00     0.047 A 
BRANCH  15  24
ATOM     24  O   UNL     1      -1.303  -2.199   1.130  1.00  0.00    -0.502 OA
ATOM     25  H   UNL     1      -1.639  -3.062   1.269  1.00  0.00     0.293 HD
ENDBRANCH  15  24
BRANCH  22  26
ATOM     26  O   UNL     1      -6.334  -2.026  -0.335  1.00  0.00    -0.507 OA
ATOM     27  H   UNL     1      -7.237  -2.150  -0.556  1.00  0.00     0.293 HD
ENDBRANCH  22  26
ENDBRANCH   3  13
TORSDOF 6
