REMARK SMILES Cc1ccc(-c2oc3cccc(O)c3c(=O)c2O)cc1CF
REMARK SMILES IDX 6 1 7 2 8 3 9 4 10 5 11 6 12 7 14 8 15 9 16 10 17 11 5 12
REMARK SMILES IDX 2 13 3 14 20 15 4 16 19 17 1 18 21 19 22 20 18 21 13 23
REMARK H PARENT 18 22 13 24
ROOT
ATOM      1  C   UNL     1      -0.511  -0.530   0.008  1.00  0.00     0.180 A 
ATOM      2  O   UNL     1      -1.091   0.635   0.496  1.00  0.00    -0.452 OA
ATOM      3  C   UNL     1      -2.457   0.752   0.485  1.00  0.00     0.142 A 
ATOM      4  C   UNL     1      -2.996   1.935   0.992  1.00  0.00     0.048 A 
ATOM      5  C   UNL     1      -4.380   2.119   1.010  1.00  0.00     0.008 A 
ATOM      6  C   UNL     1      -5.225   1.120   0.522  1.00  0.00     0.047 A 
ATOM      7  C   UNL     1      -4.684  -0.060   0.016  1.00  0.00     0.130 A 
ATOM      8  C   UNL     1      -3.299  -0.243  -0.002  1.00  0.00     0.110 A 
ATOM      9  C   UNL     1      -2.690  -1.466  -0.525  1.00  0.00     0.238 A 
ATOM     10  O   UNL     1      -3.366  -2.388  -0.978  1.00  0.00    -0.285 OA
ATOM     11  C   UNL     1      -1.212  -1.563  -0.495  1.00  0.00     0.208 A 
ENDROOT
BRANCH   1  12
ATOM     12  C   UNL     1       0.966  -0.509   0.077  1.00  0.00     0.022 A 
ATOM     13  C   UNL     1       3.792  -0.396   0.240  1.00  0.00    -0.045 A 
ATOM     14  C   UNL     1       3.091  -1.534   0.663  1.00  0.00     0.004 A 
ATOM     15  C   UNL     1       3.072   0.706  -0.263  1.00  0.00    -0.013 A 
ATOM     16  C   UNL     1       1.696  -1.588   0.586  1.00  0.00     0.012 A 
ATOM     17  C   UNL     1       1.668   0.634  -0.336  1.00  0.00     0.018 A 
ATOM     18  C   UNL     1       5.293  -0.378   0.339  1.00  0.00     0.045 C 
BRANCH  15  19
ATOM     19  C   UNL     1       3.772   1.958  -0.730  1.00  0.00     0.250 C 
ATOM     20  F   UNL     1       2.920   2.940  -1.144  1.00  0.00    -0.246 F 
ENDBRANCH  15  19
ENDBRANCH   1  12
BRANCH  11  21
ATOM     21  O   UNL     1      -0.647  -2.717  -1.007  1.00  0.00    -0.502 OA
ATOM     22  H   UNL     1      -1.196  -3.398  -1.342  1.00  0.00     0.293 HD
ENDBRANCH  11  21
BRANCH   7  23
ATOM     23  O   UNL     1      -5.568  -0.996  -0.447  1.00  0.00    -0.507 OA
ATOM     24  H   UNL     1      -6.489  -0.827  -0.414  1.00  0.00     0.293 HD
ENDBRANCH   7  23
TORSDOF 4
