REMARK SMILES Cc1ccc(-c2oc3cccc(O)c3c(=O)c2O)cc1CC[NH+](C)C
REMARK SMILES IDX 1 1 2 2 3 3 4 4 5 5 19 6 20 7 21 8 22 9 23 10 24 11 25 12
REMARK SMILES IDX 6 14 7 15 17 16 8 17 15 18 9 19 14 20 16 21 10 22 12 23
REMARK SMILES IDX 11 24 18 25 13 27
REMARK H PARENT 23 13 18 26 13 28
ROOT
ATOM      1  C   UNL     1      -3.120  -2.701  -1.678  1.00  0.00     0.044 C 
ATOM      2  C   UNL     1      -1.827  -2.048  -1.273  1.00  0.00    -0.048 A 
ATOM      3  C   UNL     1      -0.654  -2.817  -1.252  1.00  0.00     0.004 A 
ATOM      4  C   UNL     1       0.570  -2.252  -0.887  1.00  0.00     0.012 A 
ATOM      5  C   UNL     1       0.657  -0.903  -0.530  1.00  0.00     0.022 A 
ATOM      6  C   UNL     1      -0.511  -0.129  -0.570  1.00  0.00     0.016 A 
ATOM      7  C   UNL     1      -1.754  -0.681  -0.938  1.00  0.00    -0.039 A 
ENDROOT
BRANCH   7   8
ATOM      8  C   UNL     1      -2.972   0.221  -0.924  1.00  0.00     0.097 C 
BRANCH   8   9
ATOM      9  C   UNL     1      -3.607   0.293   0.476  1.00  0.00     0.266 C 
BRANCH   9  10
ATOM     10  N   UNL     1      -4.875   1.050   0.506  1.00  0.00    -0.340 N 
ATOM     11  C   UNL     1      -4.664   2.479   0.264  1.00  0.00     0.332 C 
ATOM     12  C   UNL     1      -5.534   0.863   1.802  1.00  0.00     0.332 C 
ATOM     13  H   UNL     1      -5.468   0.691  -0.243  1.00  0.00     0.347 HD
ENDBRANCH   9  10
ENDBRANCH   8   9
ENDBRANCH   7   8
BRANCH   5  14
ATOM     14  C   UNL     1       1.966  -0.319  -0.167  1.00  0.00     0.180 A 
ATOM     15  O   UNL     1       2.982  -0.681  -1.044  1.00  0.00    -0.452 OA
ATOM     16  C   UNL     1       2.151   0.461   0.915  1.00  0.00     0.208 A 
ATOM     17  C   UNL     1       4.250  -0.208  -0.823  1.00  0.00     0.142 A 
ATOM     18  C   UNL     1       3.512   0.979   1.188  1.00  0.00     0.238 A 
ATOM     19  C   UNL     1       5.235  -0.584  -1.737  1.00  0.00     0.048 A 
ATOM     20  C   UNL     1       4.577   0.610   0.254  1.00  0.00     0.110 A 
ATOM     21  O   UNL     1       3.722   1.692   2.167  1.00  0.00    -0.285 OA
ATOM     22  C   UNL     1       6.548  -0.138  -1.569  1.00  0.00     0.008 A 
ATOM     23  C   UNL     1       5.891   1.056   0.423  1.00  0.00     0.130 A 
ATOM     24  C   UNL     1       6.875   0.682  -0.487  1.00  0.00     0.047 A 
BRANCH  16  25
ATOM     25  O   UNL     1       1.156   0.806   1.811  1.00  0.00    -0.502 OA
ATOM     26  H   UNL     1       1.355   1.354   2.544  1.00  0.00     0.293 HD
ENDBRANCH  16  25
BRANCH  23  27
ATOM     27  O   UNL     1       6.280   1.860   1.459  1.00  0.00    -0.507 OA
ATOM     28  H   UNL     1       7.173   2.133   1.530  1.00  0.00     0.293 HD
ENDBRANCH  23  27
ENDBRANCH   5  14
TORSDOF 6
