REMARK SMILES O=c1c(O)c(-c2ccc(O)cc2)oc2cc(O)cc(O)c12
REMARK SMILES IDX 1 1 2 2 3 3 5 4 13 5 14 6 15 7 16 8 18 9 19 10 21 11 4 12
REMARK SMILES IDX 6 14 7 15 12 16 8 17 11 18 9 19 10 20 20 22 17 24
REMARK H PARENT 4 13 10 21 20 23 17 25
ROOT
ATOM      1  O   UNL     1       1.790  -1.971   2.181  1.00  0.00    -0.285 OA
ATOM      2  C   UNL     1       1.354  -1.250   1.286  1.00  0.00     0.238 A 
ATOM      3  C   UNL     1      -0.085  -0.907   1.229  1.00  0.00     0.208 A 
ATOM      4  C   UNL     1      -0.518  -0.112   0.233  1.00  0.00     0.180 A 
ATOM      5  O   UNL     1       0.311   0.420  -0.749  1.00  0.00    -0.452 OA
ATOM      6  C   UNL     1       1.648   0.115  -0.727  1.00  0.00     0.146 A 
ATOM      7  C   UNL     1       2.441   0.660  -1.736  1.00  0.00     0.094 A 
ATOM      8  C   UNL     1       3.805   0.384  -1.761  1.00  0.00     0.123 A 
ATOM      9  C   UNL     1       4.392  -0.429  -0.794  1.00  0.00     0.093 A 
ATOM     10  C   UNL     1       3.595  -0.971   0.211  1.00  0.00     0.134 A 
ATOM     11  C   UNL     1       2.223  -0.699   0.245  1.00  0.00     0.111 A 
ENDROOT
BRANCH   3  12
ATOM     12  O   UNL     1      -0.894  -1.421   2.226  1.00  0.00    -0.502 OA
ATOM     13  H   UNL     1      -0.526  -1.969   2.891  1.00  0.00     0.293 HD
ENDBRANCH   3  12
BRANCH   4  14
ATOM     14  C   UNL     1      -1.928   0.308   0.083  1.00  0.00     0.021 A 
ATOM     15  C   UNL     1      -2.986  -0.611   0.166  1.00  0.00     0.016 A 
ATOM     16  C   UNL     1      -2.229   1.652  -0.191  1.00  0.00     0.016 A 
ATOM     17  C   UNL     1      -4.311  -0.197  -0.002  1.00  0.00     0.047 A 
ATOM     18  C   UNL     1      -3.553   2.067  -0.360  1.00  0.00     0.047 A 
ATOM     19  C   UNL     1      -4.582   1.141  -0.263  1.00  0.00     0.115 A 
BRANCH  19  20
ATOM     20  O   UNL     1      -5.858   1.588  -0.433  1.00  0.00    -0.508 OA
ATOM     21  H   UNL     1      -6.577   0.989  -0.373  1.00  0.00     0.293 HD
ENDBRANCH  19  20
ENDBRANCH   4  14
BRANCH  10  22
ATOM     22  O   UNL     1       4.223  -1.762   1.135  1.00  0.00    -0.507 OA
ATOM     23  H   UNL     1       5.145  -1.915   1.072  1.00  0.00     0.293 HD
ENDBRANCH  10  22
BRANCH   8  24
ATOM     24  O   UNL     1       4.544   0.937  -2.764  1.00  0.00    -0.508 OA
ATOM     25  H   UNL     1       4.130   1.481  -3.405  1.00  0.00     0.293 HD
ENDBRANCH   8  24
TORSDOF 5
