REMARK SMILES [NH3+]CCNC(=O)c1ccc(Cl)cn1
REMARK SMILES IDX 3 1 2 2 1 3 4 7 5 8 6 9 7 11 8 12 13 13 9 14 12 15 10 16
REMARK SMILES IDX 11 17
REMARK H PARENT 1 4 1 5 1 6 4 10
ROOT
ATOM      1  C   UNL     1       2.383  -0.511  -1.116  1.00  0.00     0.177 C 
ENDROOT
BRANCH   1   2
ATOM      2  C   UNL     1       3.229  -0.328   0.153  1.00  0.00     0.280 C 
BRANCH   2   3
ATOM      3  N   UNL     1       2.907  -1.333   1.174  1.00  0.00    -0.356 N 
ATOM      4  H   UNL     1       3.487  -1.178   1.998  1.00  0.00     0.344 HD
ATOM      5  H   UNL     1       3.086  -2.265   0.801  1.00  0.00     0.344 HD
ATOM      6  H   UNL     1       1.923  -1.253   1.431  1.00  0.00     0.344 HD
ENDBRANCH   2   3
ENDBRANCH   1   2
BRANCH   1   7
ATOM      7  N   UNL     1       0.960  -0.471  -0.842  1.00  0.00    -0.345 N 
ATOM      8  C   UNL     1       0.272   0.703  -0.634  1.00  0.00     0.270 C 
ATOM      9  O   UNL     1       0.771   1.818  -0.734  1.00  0.00    -0.268 OA
ATOM     10  H   UNL     1       0.464  -1.321  -0.804  1.00  0.00     0.164 HD
BRANCH   8  11
ATOM     11  C   UNL     1      -1.164   0.518  -0.248  1.00  0.00     0.128 A 
ATOM     12  C   UNL     1      -1.982   1.629  -0.068  1.00  0.00     0.036 A 
ATOM     13  N   UNL     1      -1.587  -0.769  -0.085  1.00  0.00    -0.250 NA
ATOM     14  C   UNL     1      -3.312   1.419   0.296  1.00  0.00     0.024 A 
ATOM     15  C   UNL     1      -2.886  -0.932   0.267  1.00  0.00     0.132 A 
ATOM     16  C   UNL     1      -3.773   0.118   0.466  1.00  0.00     0.059 A 
ATOM     17  Cl  UNL     1      -5.403  -0.180   0.912  1.00  0.00    -0.083 Cl
ENDBRANCH   8  11
ENDBRANCH   1   7
TORSDOF 4
