REMARK SMILES COc1cc2ncnc(Nc3cccc(O)c3)c2cc1OC
REMARK SMILES IDX 10 1 9 3 3 4 4 5 20 6 5 7 19 8 6 9 18 10 7 11 8 12 2 13 1 14
REMARK SMILES IDX 21 15 22 16 11 17 12 18 17 19 13 20 15 21 14 22 16 23
REMARK H PARENT 10 2 16 24
ROOT
ATOM      1  N   UNL     1       1.621   1.000   1.513  1.00  0.00    -0.340 N 
ATOM      2  H   UNL     1       1.730   1.792   2.087  1.00  0.00     0.168 HD
ENDROOT
BRANCH   1   3
ATOM      3  C   UNL     1       0.834  -0.058   2.022  1.00  0.00     0.141 A 
ATOM      4  C   UNL     1      -2.659  -1.599   0.243  1.00  0.00     0.162 A 
ATOM      5  C   UNL     1      -2.107  -2.120   1.422  1.00  0.00     0.079 A 
ATOM      6  C   UNL     1      -2.025  -0.537  -0.409  1.00  0.00     0.161 A 
ATOM      7  C   UNL     1      -0.962  -1.597   2.003  1.00  0.00     0.080 A 
ATOM      8  C   UNL     1      -0.880   0.009   0.178  1.00  0.00     0.064 A 
ATOM      9  N   UNL     1      -0.518  -2.134   3.145  1.00  0.00    -0.236 NA
ATOM     10  C   UNL     1      -0.326  -0.524   1.374  1.00  0.00     0.047 A 
ATOM     11  C   UNL     1       0.573  -1.584   3.688  1.00  0.00     0.224 A 
ATOM     12  N   UNL     1       1.274  -0.563   3.188  1.00  0.00    -0.219 NA
BRANCH   4  13
ATOM     13  O   UNL     1      -3.784  -2.263  -0.175  1.00  0.00    -0.493 OA
ATOM     14  C   UNL     1      -4.788  -1.465  -0.793  1.00  0.00     0.278 C 
ENDBRANCH   4  13
BRANCH   6  15
ATOM     15  O   UNL     1      -2.554  -0.093  -1.590  1.00  0.00    -0.493 OA
ATOM     16  C   UNL     1      -1.741   0.749  -2.401  1.00  0.00     0.278 C 
ENDBRANCH   6  15
ENDBRANCH   1   3
BRANCH   1  17
ATOM     17  C   UNL     1       2.268   1.027   0.249  1.00  0.00     0.043 A 
ATOM     18  C   UNL     1       2.556  -0.134  -0.483  1.00  0.00     0.026 A 
ATOM     19  C   UNL     1       2.719   2.262  -0.236  1.00  0.00     0.072 A 
ATOM     20  C   UNL     1       3.235  -0.055  -1.702  1.00  0.00     0.006 A 
ATOM     21  C   UNL     1       3.393   2.330  -1.453  1.00  0.00     0.117 A 
ATOM     22  C   UNL     1       3.649   1.181  -2.191  1.00  0.00     0.046 A 
BRANCH  21  23
ATOM     23  O   UNL     1       3.826   3.519  -1.961  1.00  0.00    -0.508 OA
ATOM     24  H   UNL     1       4.277   3.541  -2.782  1.00  0.00     0.293 HD
ENDBRANCH  21  23
ENDBRANCH   1  17
TORSDOF 5
