REMARK SMILES CC(C)(O)C#Cc1ccc2c(c1)=C1c3nc(N)ncc3CCC[C@H]1N=2
REMARK SMILES IDX 6 1 7 2 8 3 9 4 10 5 11 6 12 7 13 8 24 9 25 10 5 11 2 12
REMARK SMILES IDX 1 13 3 14 4 15 14 17 15 18 20 19 16 20 19 21 18 22 21 23
REMARK SMILES IDX 17 25 23 28 22 29
REMARK H PARENT 4 16 17 26 17 27
REMARK Flexibility Score:    8.900
ROOT
ATOM      1  C   UNL     1       2.955  -0.743  -0.020  1.00  0.00    -0.064 C 
ATOM      2  C   UNL     1       1.662  -1.283   0.228  1.00  0.00     0.025 A 
ATOM      3  C   UNL     1       1.534  -2.716   0.472  1.00  0.00     0.019 A 
ATOM      4  C   UNL     1       0.357  -3.314   0.729  1.00  0.00     0.030 A 
ATOM      5  C   UNL     1      -0.871  -2.493   0.764  1.00  0.00     0.066 A 
ATOM      6  C   UNL     1      -0.707  -1.057   0.495  1.00  0.00     0.008 A 
ATOM      7  C   UNL     1       0.580  -0.484   0.241  1.00  0.00     0.028 A 
ATOM      8  C   UNL     1      -1.956  -0.596   0.594  1.00  0.00     0.012 C 
ATOM      9  C   UNL     1      -2.913  -1.706   0.916  1.00  0.00     0.139 C 
ATOM     10  N   UNL     1      -2.066  -2.933   1.015  1.00  0.00    -0.277 NA
ENDROOT
BRANCH   1  11
ATOM     11  C   UNL     1       4.047  -0.287  -0.229  1.00  0.00    -0.064 C 
ATOM     12  C   UNL     1       5.385   0.273  -0.479  1.00  0.00     0.120 C 
ATOM     13  C   UNL     1       5.949  -0.253  -1.796  1.00  0.00     0.056 C 
ATOM     14  C   UNL     1       5.336   1.800  -0.484  1.00  0.00     0.056 C 
BRANCH  12  15
ATOM     15  O   UNL     1       6.263  -0.144   0.566  1.00  0.00    -0.378 OA
ATOM     16  H   UNL     1       7.148   0.222   0.409  1.00  0.00     0.212 HD
ENDBRANCH  12  15
ENDBRANCH   1  11
BRANCH   8  17
ATOM     17  C   UNL     1      -2.375   0.802   0.535  1.00  0.00     0.078 A 
ATOM     18  N   UNL     1      -1.592   1.646   1.245  1.00  0.00    -0.213 NA
ATOM     19  C   UNL     1      -3.490   1.232  -0.161  1.00  0.00    -0.003 A 
ATOM     20  C   UNL     1      -1.919   2.936   1.252  1.00  0.00     0.220 A 
ATOM     21  C   UNL     1      -3.733   2.590  -0.070  1.00  0.00     0.121 A 
ATOM     22  N   UNL     1      -2.978   3.452   0.634  1.00  0.00    -0.222 NA
BRANCH  19  23
ATOM     23  C   UNL     1      -4.350   0.369  -1.034  1.00  0.00     0.039 CG0
ATOM     24  G   UNL     1      -4.970  -0.834  -0.329  1.00  0.00     0.000 G0
ENDBRANCH  19  23
BRANCH  20  25
ATOM     25  N   UNL     1      -1.130   3.792   1.991  1.00  0.00    -0.368 N 
ATOM     26  H   UNL     1      -0.338   3.447   2.463  1.00  0.00     0.159 HD
ATOM     27  H   UNL     1      -1.359   4.748   2.047  1.00  0.00     0.159 HD
ENDBRANCH  20  25
ENDBRANCH   8  17
BRANCH   9  28
ATOM     28  C   UNL     1      -3.988  -1.985  -0.134  1.00  0.00     0.032 C 
BRANCH  28  29
ATOM     29  C   UNL     1      -4.970  -0.834  -0.329  1.00  0.00     0.007 CG0
ATOM     30  G   UNL     1      -4.350   0.369  -1.034  1.00  0.00     0.000 G0
ENDBRANCH  28  29
ENDBRANCH   9  28
TORSDOF 3
