REMARK SMILES O=c1c(O)c(-c2ccc(O)c(O)c2)oc2cc(O)cc(O)c12
REMARK SMILES IDX 1 1 2 2 3 3 5 4 14 5 15 6 16 7 17 8 19 9 20 10 22 11 4 12
REMARK SMILES IDX 6 14 7 15 13 16 8 17 11 18 9 19 12 20 10 22 21 24 18 26
REMARK H PARENT 4 13 12 21 10 23 21 25 18 27
ROOT
ATOM      1  O   UNL     1       1.473   0.067   3.220  1.00  0.00    -0.285 OA
ATOM      2  C   UNL     1       1.221   0.093   2.017  1.00  0.00     0.238 A 
ATOM      3  C   UNL     1      -0.171  -0.065   1.538  1.00  0.00     0.208 A 
ATOM      4  C   UNL     1      -0.402  -0.034   0.212  1.00  0.00     0.180 A 
ATOM      5  O   UNL     1       0.595   0.131  -0.743  1.00  0.00    -0.452 OA
ATOM      6  C   UNL     1       1.893   0.288  -0.329  1.00  0.00     0.146 A 
ATOM      7  C   UNL     1       2.859   0.462  -1.320  1.00  0.00     0.094 A 
ATOM      8  C   UNL     1       4.193   0.624  -0.957  1.00  0.00     0.123 A 
ATOM      9  C   UNL     1       4.580   0.615   0.381  1.00  0.00     0.093 A 
ATOM     10  C   UNL     1       3.610   0.442   1.366  1.00  0.00     0.134 A 
ATOM     11  C   UNL     1       2.268   0.278   1.011  1.00  0.00     0.111 A 
ENDROOT
BRANCH   3  12
ATOM     12  O   UNL     1      -1.149  -0.253   2.498  1.00  0.00    -0.502 OA
ATOM     13  H   UNL     1      -0.918  -0.264   3.406  1.00  0.00     0.293 HD
ENDBRANCH   3  12
BRANCH   4  14
ATOM     14  C   UNL     1      -1.747  -0.200  -0.384  1.00  0.00     0.025 A 
ATOM     15  C   UNL     1      -1.913  -1.041  -1.501  1.00  0.00     0.016 A 
ATOM     16  C   UNL     1      -2.864   0.493   0.113  1.00  0.00     0.062 A 
ATOM     17  C   UNL     1      -3.165  -1.201  -2.102  1.00  0.00     0.051 A 
ATOM     18  C   UNL     1      -4.108   0.325  -0.488  1.00  0.00     0.158 A 
ATOM     19  C   UNL     1      -4.253  -0.515  -1.588  1.00  0.00     0.157 A 
BRANCH  18  20
ATOM     20  O   UNL     1      -5.224   0.972  -0.032  1.00  0.00    -0.504 OA
ATOM     21  H   UNL     1      -6.049   0.839  -0.457  1.00  0.00     0.293 HD
ENDBRANCH  18  20
BRANCH  19  22
ATOM     22  O   UNL     1      -5.476  -0.671  -2.172  1.00  0.00    -0.504 OA
ATOM     23  H   UNL     1      -5.574  -1.237  -2.912  1.00  0.00     0.293 HD
ENDBRANCH  19  22
ENDBRANCH   4  14
BRANCH  10  24
ATOM     24  O   UNL     1       4.045   0.441   2.664  1.00  0.00    -0.507 OA
ATOM     25  H   UNL     1       4.956   0.554   2.853  1.00  0.00     0.293 HD
ENDBRANCH  10  24
BRANCH   8  26
ATOM     26  O   UNL     1       5.105   0.790  -1.956  1.00  0.00    -0.508 OA
ATOM     27  H   UNL     1       4.824   0.793  -2.850  1.00  0.00     0.293 HD
ENDBRANCH   8  26
TORSDOF 6
