REMARK SMILES Cc1cc2nc3c(=O)[nH]c(=O)nc-3n(C[C@H](O)[C@H](O)[C@H](O)CO[P@@](=O)([O-])O[P@@](=O)([O-])OC[C@H]3O[C@@H](n4cnc5c(N)ncnc54)[C@H](O)[C@@H]3O)c2cc1C
REMARK SMILES IDX 24 1 25 2 26 3 27 4 28 5 29 6 30 7 31 8 32 9 33 10 34 11
REMARK SMILES IDX 48 12 35 13 46 14 49 15 36 17 37 18 45 19 38 20 39 21 44 22
REMARK SMILES IDX 40 23 43 24 42 25 41 26 47 29 23 31 22 32 20 33 18 34 16 35
REMARK SMILES IDX 15 36 14 37 50 38 13 39 51 40 4 41 6 42 12 43 52 44 5 45
REMARK SMILES IDX 3 46 7 47 10 48 2 49 9 50 8 51 11 52 53 53 1 54 17 56 19 58
REMARK SMILES IDX 21 60
REMARK H PARENT 49 16 41 27 41 28 47 30 9 55 17 57 19 59 21 61
ROOT
ATOM      1  P   UNL     1      26.047  36.017 -21.160  1.00  0.00     0.274 P 
ATOM      2  O   UNL     1      25.863  37.529 -21.235  1.00  0.00    -0.276 OA
ATOM      3  O   UNL     1      26.286  35.400 -22.571  1.00  0.00    -0.756 OA
ENDROOT
BRANCH   1   4
ATOM      4  O   UNL     1      25.007  35.147 -20.374  1.00  0.00    -0.250 OA
BRANCH   4   5
ATOM      5  P   UNL     1      24.526  35.341 -18.862  1.00  0.00     0.274 P 
ATOM      6  O   UNL     1      23.715  34.134 -18.435  1.00  0.00    -0.276 OA
ATOM      7  O   UNL     1      25.652  35.938 -18.109  1.00  0.00    -0.756 OA
BRANCH   5   8
ATOM      8  O   UNL     1      23.442  36.452 -19.104  1.00  0.00    -0.315 OA
BRANCH   8   9
ATOM      9  C   UNL     1      22.084  36.087 -19.298  1.00  0.00     0.204 C 
BRANCH   9  10
ATOM     10  C   UNL     1      21.189  37.089 -18.564  1.00  0.00     0.178 C 
ATOM     11  O   UNL     1      19.844  36.832 -18.974  1.00  0.00    -0.347 OA
ATOM     12  C   UNL     1      21.228  36.873 -17.036  1.00  0.00     0.179 C 
ATOM     13  C   UNL     1      18.994  36.807 -17.820  1.00  0.00     0.253 C 
ATOM     14  C   UNL     1      19.878  36.247 -16.734  1.00  0.00     0.195 C 
BRANCH  12  15
ATOM     15  O   UNL     1      21.387  38.107 -16.330  1.00  0.00    -0.387 OA
ATOM     16  H   UNL     1      20.663  38.709 -16.564  1.00  0.00     0.211 HD
ENDBRANCH  12  15
BRANCH  13  17
ATOM     17  N   UNL     1      17.838  35.974 -18.209  1.00  0.00    -0.285 N 
ATOM     18  C   UNL     1      17.649  34.614 -18.277  1.00  0.00     0.204 A 
ATOM     19  C   UNL     1      16.716  36.577 -18.667  1.00  0.00     0.167 A 
ATOM     20  N   UNL     1      16.377  34.361 -18.761  1.00  0.00    -0.231 NA
ATOM     21  C   UNL     1      15.830  35.567 -19.044  1.00  0.00     0.150 A 
ATOM     22  N   UNL     1      16.440  37.926 -18.849  1.00  0.00    -0.216 NA
ATOM     23  C   UNL     1      14.614  35.928 -19.611  1.00  0.00     0.155 A 
ATOM     24  C   UNL     1      15.208  38.253 -19.396  1.00  0.00     0.226 A 
ATOM     25  N   UNL     1      14.348  37.262 -19.766  1.00  0.00    -0.217 NA
BRANCH  23  26
ATOM     26  N   UNL     1      13.777  34.985 -20.098  1.00  0.00    -0.382 N 
ATOM     27  H   UNL     1      13.986  34.031 -19.976  1.00  0.00     0.158 HD
ATOM     28  H   UNL     1      12.958  35.252 -20.575  1.00  0.00     0.158 HD
ENDBRANCH  23  26
ENDBRANCH  13  17
BRANCH  14  29
ATOM     29  O   UNL     1      19.344  36.625 -15.513  1.00  0.00    -0.386 OA
ATOM     30  H   UNL     1      19.244  37.590 -15.488  1.00  0.00     0.211 HD
ENDBRANCH  14  29
ENDBRANCH   9  10
ENDBRANCH   8   9
ENDBRANCH   5   8
ENDBRANCH   4   5
ENDBRANCH   1   4
BRANCH   1  31
ATOM     31  O   UNL     1      27.415  35.897 -20.388  1.00  0.00    -0.315 OA
BRANCH  31  32
ATOM     32  C   UNL     1      27.905  34.636 -20.067  1.00  0.00     0.204 C 
BRANCH  32  33
ATOM     33  C   UNL     1      29.198  34.887 -19.282  1.00  0.00     0.172 C 
BRANCH  33  34
ATOM     34  C   UNL     1      29.738  33.535 -18.909  1.00  0.00     0.175 C 
BRANCH  34  35
ATOM     35  C   UNL     1      30.860  33.526 -17.854  1.00  0.00     0.165 C 
BRANCH  35  36
ATOM     36  C   UNL     1      31.309  32.089 -17.823  1.00  0.00     0.159 C 
BRANCH  36  37
ATOM     37  N   UNL     1      32.314  31.830 -16.758  1.00  0.00    -0.320 N 
ATOM     38  C   UNL     1      31.881  31.290 -15.559  1.00  0.00     0.069 A 
ATOM     39  C   UNL     1      33.554  32.411 -16.816  1.00  0.00     0.170 A 
ATOM     40  C   UNL     1      30.483  31.256 -15.195  1.00  0.00     0.032 A 
ATOM     41  C   UNL     1      32.876  30.868 -14.656  1.00  0.00     0.088 A 
ATOM     42  C   UNL     1      34.500  32.187 -15.817  1.00  0.00     0.172 A 
ATOM     43  N   UNL     1      33.859  33.196 -17.880  1.00  0.00    -0.173 NA
ATOM     44  C   UNL     1      30.163  30.754 -13.907  1.00  0.00    -0.046 A 
ATOM     45  N   UNL     1      34.176  31.342 -14.785  1.00  0.00    -0.237 NA
ATOM     46  C   UNL     1      32.515  30.393 -13.386  1.00  0.00     0.034 A 
ATOM     47  C   UNL     1      35.730  32.822 -15.834  1.00  0.00     0.281 A 
ATOM     48  C   UNL     1      35.078  33.789 -17.944  1.00  0.00     0.349 A 
ATOM     49  C   UNL     1      31.184  30.337 -13.013  1.00  0.00    -0.046 A 
ATOM     50  N   UNL     1      36.025  33.648 -16.940  1.00  0.00    -0.271 N 
ATOM     51  O   UNL     1      36.543  32.610 -14.879  1.00  0.00    -0.267 OA
ATOM     52  O   UNL     1      35.252  34.450 -18.918  1.00  0.00    -0.246 OA
ATOM     53  C   UNL     1      28.733  30.599 -13.503  1.00  0.00     0.044 C 
ATOM     54  C   UNL     1      30.872  29.574 -11.731  1.00  0.00     0.044 C 
ATOM     55  H   UNL     1      36.889  34.117 -16.998  1.00  0.00     0.175 HD
ENDBRANCH  36  37
ENDBRANCH  35  36
BRANCH  35  56
ATOM     56  O   UNL     1      30.440  33.753 -16.542  1.00  0.00    -0.388 OA
ATOM     57  H   UNL     1      29.798  33.072 -16.285  1.00  0.00     0.211 HD
ENDBRANCH  35  56
ENDBRANCH  34  35
BRANCH  34  58
ATOM     58  O   UNL     1      30.282  33.013 -20.139  1.00  0.00    -0.388 OA
ATOM     59  H   UNL     1      30.990  33.597 -20.453  1.00  0.00     0.211 HD
ENDBRANCH  34  58
ENDBRANCH  33  34
BRANCH  33  60
ATOM     60  O   UNL     1      28.902  35.647 -18.142  1.00  0.00    -0.388 OA
ATOM     61  H   UNL     1      28.246  35.178 -17.602  1.00  0.00     0.211 HD
ENDBRANCH  33  60
ENDBRANCH  32  33
ENDBRANCH  31  32
ENDBRANCH   1  31
TORSDOF 19
