MODEL 1
REMARK VINA RESULT:    -9.397      0.000      0.000
REMARK INTER + INTRA:         -11.167
REMARK INTER:                 -11.045
REMARK INTRA:                  -0.123
REMARK UNBOUND:                -0.123
REMARK SMILES O=c1c([O-])c(-c2ccc(O)c(O)c2)oc2cc(O)cc(O)c12
REMARK SMILES IDX 1 1 2 2 3 3 4 4 5 5 14 6 15 7 16 8 17 9 19 10 20 11 22 12
REMARK SMILES IDX 6 13 7 14 13 15 8 16 11 17 9 18 12 19 10 21 21 23 18 25
REMARK H PARENT 12 20 10 22 21 24 18 26
ROOT
ATOM      1  O   UNL     1      52.080 152.756  28.744  1.00  0.00    -0.290 OA
ATOM      2  C   UNL     1      52.148 153.963  28.488  1.00  0.00     0.189 A 
ATOM      3  C   UNL     1      51.559 155.079  29.349  1.00  0.00    -0.014 A 
ATOM      4  O   UNL     1      50.941 154.690  30.387  1.00  0.00    -0.867 OA
ATOM      5  C   UNL     1      51.780 156.335  28.868  1.00  0.00     0.130 A 
ATOM      6  O   UNL     1      52.459 156.660  27.705  1.00  0.00    -0.456 OA
ATOM      7  C   UNL     1      52.975 155.667  26.930  1.00  0.00     0.146 A 
ATOM      8  C   UNL     1      53.645 156.060  25.767  1.00  0.00     0.094 A 
ATOM      9  C   UNL     1      54.197 155.090  24.933  1.00  0.00     0.123 A 
ATOM     10  C   UNL     1      54.088 153.741  25.244  1.00  0.00     0.093 A 
ATOM     11  C   UNL     1      53.419 153.362  26.405  1.00  0.00     0.134 A 
ATOM     12  C   UNL     1      52.858 154.328  27.255  1.00  0.00     0.106 A 
ENDROOT
BRANCH   5  13
ATOM     13  C   UNL     1      51.298 157.569  29.559  1.00  0.00     0.021 A 
ATOM     14  C   UNL     1      49.975 157.637  30.042  1.00  0.00     0.016 A 
ATOM     15  C   UNL     1      52.118 158.700  29.698  1.00  0.00     0.062 A 
ATOM     16  C   UNL     1      49.486 158.796  30.655  1.00  0.00     0.051 A 
ATOM     17  C   UNL     1      51.632 159.842  30.325  1.00  0.00     0.158 A 
ATOM     18  C   UNL     1      50.323 159.891  30.790  1.00  0.00     0.157 A 
BRANCH  17  19
ATOM     19  O   UNL     1      52.427 160.942  30.513  1.00  0.00    -0.504 OA
ATOM     20  H   UNL     1      52.389 161.440  29.674  1.00  0.00     0.293 HD
ENDBRANCH  17  19
BRANCH  18  21
ATOM     21  O   UNL     1      49.860 161.025  31.395  1.00  0.00    -0.504 OA
ATOM     22  H   UNL     1      49.508 161.550  30.649  1.00  0.00     0.293 HD
ENDBRANCH  18  21
ENDBRANCH   5  13
BRANCH  11  23
ATOM     23  O   UNL     1      53.343 152.016  26.662  1.00  0.00    -0.507 OA
ATOM     24  H   UNL     1      52.467 151.719  26.308  1.00  0.00     0.293 HD
ENDBRANCH  11  23
BRANCH   9  25
ATOM     25  O   UNL     1      54.859 155.435  23.790  1.00  0.00    -0.508 OA
ATOM     26  H   UNL     1      54.259 155.301  23.039  1.00  0.00     0.293 HD
ENDBRANCH   9  25
TORSDOF 5
ENDMDL
MODEL 2
REMARK VINA RESULT:    -9.214      0.602      1.453
REMARK INTER + INTRA:         -10.952
REMARK INTER:                 -10.844
REMARK INTRA:                  -0.108
REMARK UNBOUND:                -0.123
REMARK SMILES O=c1c([O-])c(-c2ccc(O)c(O)c2)oc2cc(O)cc(O)c12
REMARK SMILES IDX 1 1 2 2 3 3 4 4 5 5 14 6 15 7 16 8 17 9 19 10 20 11 22 12
REMARK SMILES IDX 6 13 7 14 13 15 8 16 11 17 9 18 12 19 10 21 21 23 18 25
REMARK H PARENT 12 20 10 22 21 24 18 26
ROOT
ATOM      1  O   UNL     1      52.117 152.786  28.752  1.00  0.00    -0.290 OA
ATOM      2  C   UNL     1      52.155 153.994  28.496  1.00  0.00     0.189 A 
ATOM      3  C   UNL     1      51.528 155.095  29.350  1.00  0.00    -0.014 A 
ATOM      4  O   UNL     1      50.912 154.690  30.383  1.00  0.00    -0.867 OA
ATOM      5  C   UNL     1      51.720 156.356  28.869  1.00  0.00     0.130 A 
ATOM      6  O   UNL     1      52.401 156.698  27.712  1.00  0.00    -0.456 OA
ATOM      7  C   UNL     1      52.950 155.718  26.942  1.00  0.00     0.146 A 
ATOM      8  C   UNL     1      53.619 156.128  25.785  1.00  0.00     0.094 A 
ATOM      9  C   UNL     1      54.204 155.173  24.957  1.00  0.00     0.123 A 
ATOM     10  C   UNL     1      54.129 153.821  25.268  1.00  0.00     0.093 A 
ATOM     11  C   UNL     1      53.459 153.426  26.424  1.00  0.00     0.134 A 
ATOM     12  C   UNL     1      52.866 154.377  27.268  1.00  0.00     0.106 A 
ENDROOT
BRANCH   5  13
ATOM     13  C   UNL     1      51.199 157.576  29.555  1.00  0.00     0.021 A 
ATOM     14  C   UNL     1      52.027 158.707  29.713  1.00  0.00     0.016 A 
ATOM     15  C   UNL     1      49.907 157.615  30.102  1.00  0.00     0.062 A 
ATOM     16  C   UNL     1      51.577 159.846  30.389  1.00  0.00     0.051 A 
ATOM     17  C   UNL     1      49.458 158.757  30.756  1.00  0.00     0.158 A 
ATOM     18  C   UNL     1      50.292 159.860  30.906  1.00  0.00     0.157 A 
BRANCH  17  19
ATOM     19  O   UNL     1      48.186 158.835  31.258  1.00  0.00    -0.504 OA
ATOM     20  H   UNL     1      48.268 158.648  32.212  1.00  0.00     0.293 HD
ENDBRANCH  17  19
BRANCH  18  21
ATOM     21  O   UNL     1      49.838 160.970  31.559  1.00  0.00    -0.504 OA
ATOM     22  H   UNL     1      49.227 160.602  32.229  1.00  0.00     0.293 HD
ENDBRANCH  18  21
ENDBRANCH   5  13
BRANCH  11  23
ATOM     23  O   UNL     1      53.417 152.078  26.682  1.00  0.00    -0.507 OA
ATOM     24  H   UNL     1      52.458 151.842  26.749  1.00  0.00     0.293 HD
ENDBRANCH  11  23
BRANCH   9  25
ATOM     25  O   UNL     1      54.866 155.535  23.820  1.00  0.00    -0.508 OA
ATOM     26  H   UNL     1      54.242 155.492  23.077  1.00  0.00     0.293 HD
ENDBRANCH   9  25
TORSDOF 5
ENDMDL
MODEL 3
REMARK VINA RESULT:    -9.014      1.487      7.339
REMARK INTER + INTRA:         -10.718
REMARK INTER:                 -10.594
REMARK INTRA:                  -0.124
REMARK UNBOUND:                -0.123
REMARK SMILES O=c1c([O-])c(-c2ccc(O)c(O)c2)oc2cc(O)cc(O)c12
REMARK SMILES IDX 1 1 2 2 3 3 4 4 5 5 14 6 15 7 16 8 17 9 19 10 20 11 22 12
REMARK SMILES IDX 6 13 7 14 13 15 8 16 11 17 9 18 12 19 10 21 21 23 18 25
REMARK H PARENT 12 20 10 22 21 24 18 26
ROOT
ATOM      1  O   UNL     1      52.653 160.508  30.319  1.00  0.00    -0.290 OA
ATOM      2  C   UNL     1      51.982 159.494  30.105  1.00  0.00     0.189 A 
ATOM      3  C   UNL     1      52.493 158.229  29.419  1.00  0.00    -0.014 A 
ATOM      4  O   UNL     1      53.702 158.275  29.034  1.00  0.00    -0.867 OA
ATOM      5  C   UNL     1      51.567 157.233  29.315  1.00  0.00     0.130 A 
ATOM      6  O   UNL     1      50.255 157.284  29.755  1.00  0.00    -0.456 OA
ATOM      7  C   UNL     1      49.793 158.415  30.356  1.00  0.00     0.146 A 
ATOM      8  C   UNL     1      48.459 158.406  30.774  1.00  0.00     0.094 A 
ATOM      9  C   UNL     1      47.927 159.532  31.397  1.00  0.00     0.123 A 
ATOM     10  C   UNL     1      48.707 160.661  31.607  1.00  0.00     0.093 A 
ATOM     11  C   UNL     1      50.036 160.659  31.187  1.00  0.00     0.134 A 
ATOM     12  C   UNL     1      50.584 159.531  30.558  1.00  0.00     0.106 A 
ENDROOT
BRANCH   5  13
ATOM     13  C   UNL     1      51.862 155.910  28.686  1.00  0.00     0.021 A 
ATOM     14  C   UNL     1      51.477 154.718  29.333  1.00  0.00     0.016 A 
ATOM     15  C   UNL     1      52.567 155.814  27.476  1.00  0.00     0.062 A 
ATOM     16  C   UNL     1      51.778 153.466  28.787  1.00  0.00     0.051 A 
ATOM     17  C   UNL     1      52.847 154.567  26.927  1.00  0.00     0.158 A 
ATOM     18  C   UNL     1      52.463 153.403  27.584  1.00  0.00     0.157 A 
BRANCH  17  19
ATOM     19  O   UNL     1      53.494 154.449  25.725  1.00  0.00    -0.504 OA
ATOM     20  H   UNL     1      54.428 154.664  25.907  1.00  0.00     0.293 HD
ENDBRANCH  17  19
BRANCH  18  21
ATOM     21  O   UNL     1      52.755 152.187  27.035  1.00  0.00    -0.504 OA
ATOM     22  H   UNL     1      52.341 151.555  27.657  1.00  0.00     0.293 HD
ENDBRANCH  18  21
ENDBRANCH   5  13
BRANCH  11  23
ATOM     23  O   UNL     1      50.759 161.801  31.422  1.00  0.00    -0.507 OA
ATOM     24  H   UNL     1      50.376 162.494  30.827  1.00  0.00     0.293 HD
ENDBRANCH  11  23
BRANCH   9  25
ATOM     25  O   UNL     1      46.630 159.559  31.819  1.00  0.00    -0.508 OA
ATOM     26  H   UNL     1      46.215 160.368  31.476  1.00  0.00     0.293 HD
ENDBRANCH   9  25
TORSDOF 5
ENDMDL
MODEL 4
REMARK VINA RESULT:    -8.847      1.725      3.470
REMARK INTER + INTRA:         -10.521
REMARK INTER:                 -10.576
REMARK INTRA:                   0.055
REMARK UNBOUND:                -0.123
REMARK SMILES O=c1c([O-])c(-c2ccc(O)c(O)c2)oc2cc(O)cc(O)c12
REMARK SMILES IDX 1 1 2 2 3 3 4 4 5 5 14 6 15 7 16 8 17 9 19 10 20 11 22 12
REMARK SMILES IDX 6 13 7 14 13 15 8 16 11 17 9 18 12 19 10 21 21 23 18 25
REMARK H PARENT 12 20 10 22 21 24 18 26
ROOT
ATOM      1  O   UNL     1      54.731 154.848  24.419  1.00  0.00    -0.290 OA
ATOM      2  C   UNL     1      53.959 154.659  25.364  1.00  0.00     0.189 A 
ATOM      3  C   UNL     1      53.433 155.744  26.302  1.00  0.00    -0.014 A 
ATOM      4  O   UNL     1      53.866 156.914  26.068  1.00  0.00    -0.867 OA
ATOM      5  C   UNL     1      52.575 155.291  27.260  1.00  0.00     0.130 A 
ATOM      6  O   UNL     1      52.172 153.978  27.445  1.00  0.00    -0.456 OA
ATOM      7  C   UNL     1      52.648 153.007  26.618  1.00  0.00     0.146 A 
ATOM      8  C   UNL     1      52.207 151.703  26.860  1.00  0.00     0.094 A 
ATOM      9  C   UNL     1      52.657 150.665  26.048  1.00  0.00     0.123 A 
ATOM     10  C   UNL     1      53.537 150.912  25.002  1.00  0.00     0.093 A 
ATOM     11  C   UNL     1      53.970 152.217  24.771  1.00  0.00     0.134 A 
ATOM     12  C   UNL     1      53.524 153.272  25.582  1.00  0.00     0.106 A 
ENDROOT
BRANCH   5  13
ATOM     13  C   UNL     1      51.939 156.186  28.272  1.00  0.00     0.021 A 
ATOM     14  C   UNL     1      50.724 155.812  28.883  1.00  0.00     0.016 A 
ATOM     15  C   UNL     1      52.495 157.432  28.602  1.00  0.00     0.062 A 
ATOM     16  C   UNL     1      50.086 156.652  29.803  1.00  0.00     0.051 A 
ATOM     17  C   UNL     1      51.867 158.254  29.531  1.00  0.00     0.158 A 
ATOM     18  C   UNL     1      50.667 157.869  30.118  1.00  0.00     0.157 A 
BRANCH  17  19
ATOM     19  O   UNL     1      52.413 159.455  29.902  1.00  0.00    -0.504 OA
ATOM     20  H   UNL     1      51.692 159.949  30.336  1.00  0.00     0.293 HD
ENDBRANCH  17  19
BRANCH  18  21
ATOM     21  O   UNL     1      50.058 158.694  31.022  1.00  0.00    -0.504 OA
ATOM     22  H   UNL     1      49.137 158.367  31.040  1.00  0.00     0.293 HD
ENDBRANCH  18  21
ENDBRANCH   5  13
BRANCH  11  23
ATOM     23  O   UNL     1      54.839 152.402  23.725  1.00  0.00    -0.507 OA
ATOM     24  H   UNL     1      54.998 153.378  23.671  1.00  0.00     0.293 HD
ENDBRANCH  11  23
BRANCH   9  25
ATOM     25  O   UNL     1      52.247 149.379  26.252  1.00  0.00    -0.508 OA
ATOM     26  H   UNL     1      52.825 148.791  25.739  1.00  0.00     0.293 HD
ENDBRANCH   9  25
TORSDOF 5
ENDMDL
MODEL 5
REMARK VINA RESULT:    -8.706      1.539      7.143
REMARK INTER + INTRA:         -10.356
REMARK INTER:                 -10.235
REMARK INTRA:                  -0.120
REMARK UNBOUND:                -0.123
REMARK SMILES O=c1c([O-])c(-c2ccc(O)c(O)c2)oc2cc(O)cc(O)c12
REMARK SMILES IDX 1 1 2 2 3 3 4 4 5 5 14 6 15 7 16 8 17 9 19 10 20 11 22 12
REMARK SMILES IDX 6 13 7 14 13 15 8 16 11 17 9 18 12 19 10 21 21 23 18 25
REMARK H PARENT 12 20 10 22 21 24 18 26
ROOT
ATOM      1  O   UNL     1      48.152 158.697  31.075  1.00  0.00    -0.290 OA
ATOM      2  C   UNL     1      49.300 158.552  30.642  1.00  0.00     0.189 A 
ATOM      3  C   UNL     1      49.802 157.335  29.868  1.00  0.00    -0.014 A 
ATOM      4  O   UNL     1      48.946 156.413  29.698  1.00  0.00    -0.867 OA
ATOM      5  C   UNL     1      51.106 157.417  29.477  1.00  0.00     0.130 A 
ATOM      6  O   UNL     1      51.972 158.468  29.727  1.00  0.00    -0.456 OA
ATOM      7  C   UNL     1      51.531 159.550  30.427  1.00  0.00     0.146 A 
ATOM      8  C   UNL     1      52.454 160.575  30.650  1.00  0.00     0.094 A 
ATOM      9  C   UNL     1      52.063 161.709  31.358  1.00  0.00     0.123 A 
ATOM     10  C   UNL     1      50.768 161.830  31.844  1.00  0.00     0.093 A 
ATOM     11  C   UNL     1      49.856 160.802  31.615  1.00  0.00     0.134 A 
ATOM     12  C   UNL     1      50.237 159.654  30.903  1.00  0.00     0.106 A 
ENDROOT
BRANCH   5  13
ATOM     13  C   UNL     1      51.792 156.340  28.703  1.00  0.00     0.021 A 
ATOM     14  C   UNL     1      52.572 156.668  27.574  1.00  0.00     0.016 A 
ATOM     15  C   UNL     1      51.641 154.985  29.037  1.00  0.00     0.062 A 
ATOM     16  C   UNL     1      53.190 155.675  26.806  1.00  0.00     0.051 A 
ATOM     17  C   UNL     1      52.274 154.004  28.282  1.00  0.00     0.158 A 
ATOM     18  C   UNL     1      53.034 154.348  27.170  1.00  0.00     0.157 A 
BRANCH  17  19
ATOM     19  O   UNL     1      52.178 152.678  28.616  1.00  0.00    -0.504 OA
ATOM     20  H   UNL     1      51.275 152.408  28.365  1.00  0.00     0.293 HD
ENDBRANCH  17  19
BRANCH  18  21
ATOM     21  O   UNL     1      53.641 153.369  26.434  1.00  0.00    -0.504 OA
ATOM     22  H   UNL     1      53.227 153.462  25.552  1.00  0.00     0.293 HD
ENDBRANCH  18  21
ENDBRANCH   5  13
BRANCH  11  23
ATOM     23  O   UNL     1      48.591 160.976  32.117  1.00  0.00    -0.507 OA
ATOM     24  H   UNL     1      48.254 160.070  32.331  1.00  0.00     0.293 HD
ENDBRANCH  11  23
BRANCH   9  25
ATOM     25  O   UNL     1      52.936 162.731  31.594  1.00  0.00    -0.508 OA
ATOM     26  H   UNL     1      52.430 163.558  31.642  1.00  0.00     0.293 HD
ENDBRANCH   9  25
TORSDOF 5
ENDMDL
MODEL 6
REMARK VINA RESULT:    -7.498      1.439      3.018
REMARK INTER + INTRA:          -8.936
REMARK INTER:                  -8.958
REMARK INTRA:                   0.022
REMARK UNBOUND:                -0.123
REMARK SMILES O=c1c([O-])c(-c2ccc(O)c(O)c2)oc2cc(O)cc(O)c12
REMARK SMILES IDX 1 1 2 2 3 3 4 4 5 5 14 6 15 7 16 8 17 9 19 10 20 11 22 12
REMARK SMILES IDX 6 13 7 14 13 15 8 16 11 17 9 18 12 19 10 21 21 23 18 25
REMARK H PARENT 12 20 10 22 21 24 18 26
ROOT
ATOM      1  O   UNL     1      54.178 155.215  25.225  1.00  0.00    -0.290 OA
ATOM      2  C   UNL     1      53.432 155.170  26.209  1.00  0.00     0.189 A 
ATOM      3  C   UNL     1      53.001 156.375  27.044  1.00  0.00    -0.014 A 
ATOM      4  O   UNL     1      53.489 157.488  26.676  1.00  0.00    -0.867 OA
ATOM      5  C   UNL     1      52.156 156.074  28.070  1.00  0.00     0.130 A 
ATOM      6  O   UNL     1      51.688 154.813  28.404  1.00  0.00    -0.456 OA
ATOM      7  C   UNL     1      52.080 153.736  27.669  1.00  0.00     0.146 A 
ATOM      8  C   UNL     1      51.576 152.492  28.060  1.00  0.00     0.094 A 
ATOM      9  C   UNL     1      51.938 151.351  27.348  1.00  0.00     0.123 A 
ATOM     10  C   UNL     1      52.792 151.438  26.255  1.00  0.00     0.093 A 
ATOM     11  C   UNL     1      53.287 152.684  25.875  1.00  0.00     0.134 A 
ATOM     12  C   UNL     1      52.930 153.841  26.584  1.00  0.00     0.106 A 
ENDROOT
BRANCH   5  13
ATOM     13  C   UNL     1      51.608 157.104  29.003  1.00  0.00     0.021 A 
ATOM     14  C   UNL     1      50.349 156.912  29.609  1.00  0.00     0.016 A 
ATOM     15  C   UNL     1      52.294 158.302  29.257  1.00  0.00     0.062 A 
ATOM     16  C   UNL     1      49.795 157.880  30.452  1.00  0.00     0.051 A 
ATOM     17  C   UNL     1      51.747 159.253  30.112  1.00  0.00     0.158 A 
ATOM     18  C   UNL     1      50.503 159.046  30.696  1.00  0.00     0.157 A 
BRANCH  17  19
ATOM     19  O   UNL     1      52.419 160.409  30.411  1.00  0.00    -0.504 OA
ATOM     20  H   UNL     1      51.850 160.887  31.044  1.00  0.00     0.293 HD
ENDBRANCH  17  19
BRANCH  18  21
ATOM     21  O   UNL     1      49.976 159.996  31.525  1.00  0.00    -0.504 OA
ATOM     22  H   UNL     1      49.690 159.479  32.305  1.00  0.00     0.293 HD
ENDBRANCH  18  21
ENDBRANCH   5  13
BRANCH  11  23
ATOM     23  O   UNL     1      54.125 152.709  24.789  1.00  0.00    -0.507 OA
ATOM     24  H   UNL     1      53.541 152.796  23.995  1.00  0.00     0.293 HD
ENDBRANCH  11  23
BRANCH   9  25
ATOM     25  O   UNL     1      51.466 150.120  27.698  1.00  0.00    -0.508 OA
ATOM     26  H   UNL     1      50.622 149.975  27.238  1.00  0.00     0.293 HD
ENDBRANCH   9  25
TORSDOF 5
ENDMDL
