MODEL 1
REMARK VINA RESULT:    -9.318      0.000      0.000
REMARK INTER + INTRA:         -11.098
REMARK INTER:                 -10.952
REMARK INTRA:                  -0.146
REMARK UNBOUND:                -0.146
REMARK SMILES O=c1c([O-])c(-c2ccc(O)c(O)c2)oc2cc(O)cc(O)c12
REMARK SMILES IDX 1 1 2 2 3 3 4 4 5 5 14 6 15 7 16 8 17 9 19 10 20 11 22 12
REMARK SMILES IDX 6 13 7 14 13 15 8 16 11 17 9 18 12 19 10 21 21 23 18 25
REMARK H PARENT 12 20 10 22 21 24 18 26
ROOT
ATOM      1  O   UNL     1      52.073 152.934  28.878  1.00  0.00    -0.290 OA
ATOM      2  C   UNL     1      52.125 154.139  28.615  1.00  0.00     0.189 A 
ATOM      3  C   UNL     1      51.539 155.255  29.478  1.00  0.00    -0.014 A 
ATOM      4  O   UNL     1      50.941 154.867  30.528  1.00  0.00    -0.867 OA
ATOM      5  C   UNL     1      51.741 156.510  28.985  1.00  0.00     0.130 A 
ATOM      6  O   UNL     1      52.398 156.835  27.810  1.00  0.00    -0.456 OA
ATOM      7  C   UNL     1      52.911 155.841  27.032  1.00  0.00     0.146 A 
ATOM      8  C   UNL     1      53.559 156.233  25.857  1.00  0.00     0.094 A 
ATOM      9  C   UNL     1      54.106 155.264  25.020  1.00  0.00     0.123 A 
ATOM     10  C   UNL     1      54.015 153.916  25.341  1.00  0.00     0.093 A 
ATOM     11  C   UNL     1      53.368 153.538  26.515  1.00  0.00     0.134 A 
ATOM     12  C   UNL     1      52.812 154.504  27.368  1.00  0.00     0.106 A 
ENDROOT
BRANCH   5  13
ATOM     13  C   UNL     1      51.258 157.743  29.677  1.00  0.00     0.021 A 
ATOM     14  C   UNL     1      49.926 157.822  30.135  1.00  0.00     0.016 A 
ATOM     15  C   UNL     1      52.086 158.865  29.841  1.00  0.00     0.062 A 
ATOM     16  C   UNL     1      49.437 158.981  30.747  1.00  0.00     0.051 A 
ATOM     17  C   UNL     1      51.600 160.007  30.467  1.00  0.00     0.158 A 
ATOM     18  C   UNL     1      50.283 160.066  30.907  1.00  0.00     0.157 A 
BRANCH  17  19
ATOM     19  O   UNL     1      52.403 161.097  30.679  1.00  0.00    -0.504 OA
ATOM     20  H   UNL     1      53.076 160.808  31.323  1.00  0.00     0.293 HD
ENDBRANCH  17  19
BRANCH  18  21
ATOM     21  O   UNL     1      49.820 161.201  31.512  1.00  0.00    -0.504 OA
ATOM     22  H   UNL     1      49.576 160.894  32.409  1.00  0.00     0.293 HD
ENDBRANCH  18  21
ENDBRANCH   5  13
BRANCH  11  23
ATOM     23  O   UNL     1      53.309 152.193  26.781  1.00  0.00    -0.507 OA
ATOM     24  H   UNL     1      54.072 151.785  26.300  1.00  0.00     0.293 HD
ENDBRANCH  11  23
BRANCH   9  25
ATOM     25  O   UNL     1      54.747 155.608  23.865  1.00  0.00    -0.508 OA
ATOM     26  H   UNL     1      54.337 156.418  23.520  1.00  0.00     0.293 HD
ENDBRANCH   9  25
TORSDOF 5
ENDMDL
MODEL 2
REMARK VINA RESULT:    -9.051      1.498      7.315
REMARK INTER + INTRA:         -10.785
REMARK INTER:                 -10.641
REMARK INTRA:                  -0.143
REMARK UNBOUND:                -0.146
REMARK SMILES O=c1c([O-])c(-c2ccc(O)c(O)c2)oc2cc(O)cc(O)c12
REMARK SMILES IDX 1 1 2 2 3 3 4 4 5 5 14 6 15 7 16 8 17 9 19 10 20 11 22 12
REMARK SMILES IDX 6 13 7 14 13 15 8 16 11 17 9 18 12 19 10 21 21 23 18 25
REMARK H PARENT 12 20 10 22 21 24 18 26
ROOT
ATOM      1  O   UNL     1      52.528 160.578  30.354  1.00  0.00    -0.290 OA
ATOM      2  C   UNL     1      51.863 159.558  30.139  1.00  0.00     0.189 A 
ATOM      3  C   UNL     1      52.387 158.291  29.466  1.00  0.00    -0.014 A 
ATOM      4  O   UNL     1      53.600 158.341  29.093  1.00  0.00    -0.867 OA
ATOM      5  C   UNL     1      51.468 157.291  29.359  1.00  0.00     0.130 A 
ATOM      6  O   UNL     1      50.150 157.339  29.785  1.00  0.00    -0.456 OA
ATOM      7  C   UNL     1      49.677 158.471  30.375  1.00  0.00     0.146 A 
ATOM      8  C   UNL     1      48.339 158.457  30.779  1.00  0.00     0.094 A 
ATOM      9  C   UNL     1      47.795 159.585  31.390  1.00  0.00     0.123 A 
ATOM     10  C   UNL     1      48.568 160.720  31.601  1.00  0.00     0.093 A 
ATOM     11  C   UNL     1      49.901 160.721  31.194  1.00  0.00     0.134 A 
ATOM     12  C   UNL     1      50.461 159.591  30.578  1.00  0.00     0.106 A 
ENDROOT
BRANCH   5  13
ATOM     13  C   UNL     1      51.774 155.966  28.741  1.00  0.00     0.021 A 
ATOM     14  C   UNL     1      51.429 154.775  29.413  1.00  0.00     0.016 A 
ATOM     15  C   UNL     1      52.454 155.867  27.517  1.00  0.00     0.062 A 
ATOM     16  C   UNL     1      51.743 153.522  28.876  1.00  0.00     0.051 A 
ATOM     17  C   UNL     1      52.746 154.618  26.979  1.00  0.00     0.158 A 
ATOM     18  C   UNL     1      52.402 153.456  27.660  1.00  0.00     0.157 A 
BRANCH  17  19
ATOM     19  O   UNL     1      53.369 154.496  25.764  1.00  0.00    -0.504 OA
ATOM     20  H   UNL     1      53.492 155.408  25.438  1.00  0.00     0.293 HD
ENDBRANCH  17  19
BRANCH  18  21
ATOM     21  O   UNL     1      52.706 152.238  27.120  1.00  0.00    -0.504 OA
ATOM     22  H   UNL     1      53.677 152.279  27.008  1.00  0.00     0.293 HD
ENDBRANCH  18  21
ENDBRANCH   5  13
BRANCH  11  23
ATOM     23  O   UNL     1      50.617 161.868  31.429  1.00  0.00    -0.507 OA
ATOM     24  H   UNL     1      50.608 162.000  32.410  1.00  0.00     0.293 HD
ENDBRANCH  11  23
BRANCH   9  25
ATOM     25  O   UNL     1      46.494 159.609  31.799  1.00  0.00    -0.508 OA
ATOM     26  H   UNL     1      46.435 159.151  32.654  1.00  0.00     0.293 HD
ENDBRANCH   9  25
TORSDOF 5
ENDMDL
MODEL 3
REMARK VINA RESULT:    -8.845      1.764      3.497
REMARK INTER + INTRA:         -10.542
REMARK INTER:                 -10.604
REMARK INTRA:                   0.061
REMARK UNBOUND:                -0.146
REMARK SMILES O=c1c([O-])c(-c2ccc(O)c(O)c2)oc2cc(O)cc(O)c12
REMARK SMILES IDX 1 1 2 2 3 3 4 4 5 5 14 6 15 7 16 8 17 9 19 10 20 11 22 12
REMARK SMILES IDX 6 13 7 14 13 15 8 16 11 17 9 18 12 19 10 21 21 23 18 25
REMARK H PARENT 12 20 10 22 21 24 18 26
ROOT
ATOM      1  O   UNL     1      54.701 154.921  24.526  1.00  0.00    -0.290 OA
ATOM      2  C   UNL     1      53.926 154.750  25.472  1.00  0.00     0.189 A 
ATOM      3  C   UNL     1      53.413 155.850  26.400  1.00  0.00    -0.014 A 
ATOM      4  O   UNL     1      53.861 157.013  26.157  1.00  0.00    -0.867 OA
ATOM      5  C   UNL     1      52.549 155.416  27.361  1.00  0.00     0.130 A 
ATOM      6  O   UNL     1      52.128 154.111  27.557  1.00  0.00    -0.456 OA
ATOM      7  C   UNL     1      52.593 153.127  26.739  1.00  0.00     0.146 A 
ATOM      8  C   UNL     1      52.134 151.830  26.992  1.00  0.00     0.094 A 
ATOM      9  C   UNL     1      52.571 150.780  26.189  1.00  0.00     0.123 A 
ATOM     10  C   UNL     1      53.456 151.007  25.142  1.00  0.00     0.093 A 
ATOM     11  C   UNL     1      53.906 152.303  24.900  1.00  0.00     0.134 A 
ATOM     12  C   UNL     1      53.473 153.371  25.702  1.00  0.00     0.106 A 
ENDROOT
BRANCH   5  13
ATOM     13  C   UNL     1      51.924 156.329  28.365  1.00  0.00     0.021 A 
ATOM     14  C   UNL     1      50.706 155.973  28.982  1.00  0.00     0.016 A 
ATOM     15  C   UNL     1      52.492 157.573  28.680  1.00  0.00     0.062 A 
ATOM     16  C   UNL     1      50.079 156.829  29.894  1.00  0.00     0.051 A 
ATOM     17  C   UNL     1      51.874 158.410  29.602  1.00  0.00     0.158 A 
ATOM     18  C   UNL     1      50.671 158.044  30.196  1.00  0.00     0.157 A 
BRANCH  17  19
ATOM     19  O   UNL     1      52.433 159.609  29.959  1.00  0.00    -0.504 OA
ATOM     20  H   UNL     1      52.889 159.446  30.806  1.00  0.00     0.293 HD
ENDBRANCH  17  19
BRANCH  18  21
ATOM     21  O   UNL     1      50.073 158.884  31.092  1.00  0.00    -0.504 OA
ATOM     22  H   UNL     1      49.188 159.033  30.703  1.00  0.00     0.293 HD
ENDBRANCH  18  21
ENDBRANCH   5  13
BRANCH  11  23
ATOM     23  O   UNL     1      54.778 152.468  23.854  1.00  0.00    -0.507 OA
ATOM     24  H   UNL     1      54.915 153.445  23.764  1.00  0.00     0.293 HD
ENDBRANCH  11  23
BRANCH   9  25
ATOM     25  O   UNL     1      52.145 149.501  26.404  1.00  0.00    -0.508 OA
ATOM     26  H   UNL     1      51.326 149.365  25.899  1.00  0.00     0.293 HD
ENDBRANCH   9  25
TORSDOF 5
ENDMDL
MODEL 4
REMARK VINA RESULT:    -8.742      1.639      2.327
REMARK INTER + INTRA:         -10.421
REMARK INTER:                 -10.406
REMARK INTRA:                  -0.015
REMARK UNBOUND:                -0.146
REMARK SMILES O=c1c([O-])c(-c2ccc(O)c(O)c2)oc2cc(O)cc(O)c12
REMARK SMILES IDX 1 1 2 2 3 3 4 4 5 5 14 6 15 7 16 8 17 9 19 10 20 11 22 12
REMARK SMILES IDX 6 13 7 14 13 15 8 16 11 17 9 18 12 19 10 21 21 23 18 25
REMARK H PARENT 12 20 10 22 21 24 18 26
ROOT
ATOM      1  O   UNL     1      52.150 151.063  27.154  1.00  0.00    -0.290 OA
ATOM      2  C   UNL     1      52.331 152.280  27.047  1.00  0.00     0.189 A 
ATOM      3  C   UNL     1      51.807 153.337  28.017  1.00  0.00    -0.014 A 
ATOM      4  O   UNL     1      51.117 152.887  28.984  1.00  0.00    -0.867 OA
ATOM      5  C   UNL     1      52.154 154.615  27.697  1.00  0.00     0.130 A 
ATOM      6  O   UNL     1      52.904 155.011  26.601  1.00  0.00    -0.456 OA
ATOM      7  C   UNL     1      53.363 154.072  25.728  1.00  0.00     0.146 A 
ATOM      8  C   UNL     1      54.109 154.536  24.640  1.00  0.00     0.094 A 
ATOM      9  C   UNL     1      54.608 153.625  23.712  1.00  0.00     0.123 A 
ATOM     10  C   UNL     1      54.371 152.264  23.857  1.00  0.00     0.093 A 
ATOM     11  C   UNL     1      53.626 151.814  24.945  1.00  0.00     0.134 A 
ATOM     12  C   UNL     1      53.118 152.721  25.887  1.00  0.00     0.106 A 
ENDROOT
BRANCH   5  13
ATOM     13  C   UNL     1      51.753 155.798  28.516  1.00  0.00     0.021 A 
ATOM     14  C   UNL     1      50.502 155.816  29.166  1.00  0.00     0.016 A 
ATOM     15  C   UNL     1      52.574 156.932  28.618  1.00  0.00     0.062 A 
ATOM     16  C   UNL     1      50.084 156.929  29.905  1.00  0.00     0.051 A 
ATOM     17  C   UNL     1      52.162 158.028  29.369  1.00  0.00     0.158 A 
ATOM     18  C   UNL     1      50.922 158.028  29.998  1.00  0.00     0.157 A 
BRANCH  17  19
ATOM     19  O   UNL     1      52.965 159.128  29.520  1.00  0.00    -0.504 OA
ATOM     20  H   UNL     1      52.607 159.801  28.911  1.00  0.00     0.293 HD
ENDBRANCH  17  19
BRANCH  18  21
ATOM     21  O   UNL     1      50.530 159.117  30.724  1.00  0.00    -0.504 OA
ATOM     22  H   UNL     1      49.554 159.062  30.703  1.00  0.00     0.293 HD
ENDBRANCH  18  21
ENDBRANCH   5  13
BRANCH  11  23
ATOM     23  O   UNL     1      53.425 150.460  25.036  1.00  0.00    -0.507 OA
ATOM     24  H   UNL     1      53.851 150.065  24.235  1.00  0.00     0.293 HD
ENDBRANCH  11  23
BRANCH   9  25
ATOM     25  O   UNL     1      55.342 154.040  22.639  1.00  0.00    -0.508 OA
ATOM     26  H   UNL     1      55.355 153.322  21.984  1.00  0.00     0.293 HD
ENDBRANCH   9  25
TORSDOF 5
ENDMDL
MODEL 5
REMARK VINA RESULT:    -8.684      1.495      7.089
REMARK INTER + INTRA:         -10.353
REMARK INTER:                 -10.229
REMARK INTRA:                  -0.124
REMARK UNBOUND:                -0.146
REMARK SMILES O=c1c([O-])c(-c2ccc(O)c(O)c2)oc2cc(O)cc(O)c12
REMARK SMILES IDX 1 1 2 2 3 3 4 4 5 5 14 6 15 7 16 8 17 9 19 10 20 11 22 12
REMARK SMILES IDX 6 13 7 14 13 15 8 16 11 17 9 18 12 19 10 21 21 23 18 25
REMARK H PARENT 12 20 10 22 21 24 18 26
ROOT
ATOM      1  O   UNL     1      48.120 158.714  31.044  1.00  0.00    -0.290 OA
ATOM      2  C   UNL     1      49.272 158.558  30.627  1.00  0.00     0.189 A 
ATOM      3  C   UNL     1      49.772 157.334  29.862  1.00  0.00    -0.014 A 
ATOM      4  O   UNL     1      48.909 156.421  29.682  1.00  0.00    -0.867 OA
ATOM      5  C   UNL     1      51.082 157.402  29.489  1.00  0.00     0.130 A 
ATOM      6  O   UNL     1      51.955 158.446  29.749  1.00  0.00    -0.456 OA
ATOM      7  C   UNL     1      51.515 159.532  30.441  1.00  0.00     0.146 A 
ATOM      8  C   UNL     1      52.446 160.549  30.674  1.00  0.00     0.094 A 
ATOM      9  C   UNL     1      52.057 161.688  31.376  1.00  0.00     0.123 A 
ATOM     10  C   UNL     1      50.756 161.823  31.844  1.00  0.00     0.093 A 
ATOM     11  C   UNL     1      49.837 160.803  31.604  1.00  0.00     0.134 A 
ATOM     12  C   UNL     1      50.216 159.650  30.899  1.00  0.00     0.106 A 
ENDROOT
BRANCH   5  13
ATOM     13  C   UNL     1      51.768 156.317  28.725  1.00  0.00     0.021 A 
ATOM     14  C   UNL     1      52.556 156.635  27.599  1.00  0.00     0.016 A 
ATOM     15  C   UNL     1      51.608 154.966  29.066  1.00  0.00     0.062 A 
ATOM     16  C   UNL     1      53.175 155.634  26.842  1.00  0.00     0.051 A 
ATOM     17  C   UNL     1      52.240 153.977  28.321  1.00  0.00     0.158 A 
ATOM     18  C   UNL     1      53.009 154.310  27.212  1.00  0.00     0.157 A 
BRANCH  17  19
ATOM     19  O   UNL     1      52.135 152.653  28.662  1.00  0.00    -0.504 OA
ATOM     20  H   UNL     1      53.001 152.257  28.448  1.00  0.00     0.293 HD
ENDBRANCH  17  19
BRANCH  18  21
ATOM     21  O   UNL     1      53.616 153.324  26.486  1.00  0.00    -0.504 OA
ATOM     22  H   UNL     1      53.977 153.804  25.714  1.00  0.00     0.293 HD
ENDBRANCH  18  21
ENDBRANCH   5  13
BRANCH  11  23
ATOM     23  O   UNL     1      48.567 160.991  32.089  1.00  0.00    -0.507 OA
ATOM     24  H   UNL     1      47.961 160.536  31.452  1.00  0.00     0.293 HD
ENDBRANCH  11  23
BRANCH   9  25
ATOM     25  O   UNL     1      52.937 162.701  31.622  1.00  0.00    -0.508 OA
ATOM     26  H   UNL     1      53.166 163.117  30.774  1.00  0.00     0.293 HD
ENDBRANCH   9  25
TORSDOF 5
ENDMDL
MODEL 6
REMARK VINA RESULT:    -7.438     11.859     14.511
REMARK INTER + INTRA:          -8.889
REMARK INTER:                  -8.588
REMARK INTRA:                  -0.301
REMARK UNBOUND:                -0.146
REMARK SMILES O=c1c([O-])c(-c2ccc(O)c(O)c2)oc2cc(O)cc(O)c12
REMARK SMILES IDX 1 1 2 2 3 3 4 4 5 5 14 6 15 7 16 8 17 9 19 10 20 11 22 12
REMARK SMILES IDX 6 13 7 14 13 15 8 16 11 17 9 18 12 19 10 21 21 23 18 25
REMARK H PARENT 12 20 10 22 21 24 18 26
ROOT
ATOM      1  O   UNL     1      62.596 159.641  40.057  1.00  0.00    -0.290 OA
ATOM      2  C   UNL     1      61.529 160.126  39.667  1.00  0.00     0.189 A 
ATOM      3  C   UNL     1      61.379 161.099  38.499  1.00  0.00    -0.014 A 
ATOM      4  O   UNL     1      62.464 161.427  37.927  1.00  0.00    -0.867 OA
ATOM      5  C   UNL     1      60.094 161.479  38.247  1.00  0.00     0.130 A 
ATOM      6  O   UNL     1      58.967 161.075  38.945  1.00  0.00    -0.456 OA
ATOM      7  C   UNL     1      59.100 160.217  39.993  1.00  0.00     0.146 A 
ATOM      8  C   UNL     1      57.926 159.851  40.659  1.00  0.00     0.094 A 
ATOM      9  C   UNL     1      57.994 158.974  41.739  1.00  0.00     0.123 A 
ATOM     10  C   UNL     1      59.215 158.461  42.160  1.00  0.00     0.093 A 
ATOM     11  C   UNL     1      60.377 158.833  41.488  1.00  0.00     0.134 A 
ATOM     12  C   UNL     1      60.323 159.715  40.398  1.00  0.00     0.106 A 
ENDROOT
BRANCH   5  13
ATOM     13  C   UNL     1      59.724 162.417  37.145  1.00  0.00     0.021 A 
ATOM     14  C   UNL     1      60.063 163.783  37.236  1.00  0.00     0.016 A 
ATOM     15  C   UNL     1      58.991 161.985  36.029  1.00  0.00     0.062 A 
ATOM     16  C   UNL     1      59.691 164.690  36.238  1.00  0.00     0.051 A 
ATOM     17  C   UNL     1      58.641 162.888  35.031  1.00  0.00     0.158 A 
ATOM     18  C   UNL     1      58.980 164.231  35.141  1.00  0.00     0.157 A 
BRANCH  17  19
ATOM     19  O   UNL     1      57.965 162.481  33.910  1.00  0.00    -0.504 OA
ATOM     20  H   UNL     1      57.564 161.622  34.141  1.00  0.00     0.293 HD
ENDBRANCH  17  19
BRANCH  18  21
ATOM     21  O   UNL     1      58.619 165.106  34.155  1.00  0.00    -0.504 OA
ATOM     22  H   UNL     1      58.317 165.893  34.652  1.00  0.00     0.293 HD
ENDBRANCH  18  21
ENDBRANCH   5  13
BRANCH  11  23
ATOM     23  O   UNL     1      61.554 158.295  41.947  1.00  0.00    -0.507 OA
ATOM     24  H   UNL     1      62.130 158.178  41.151  1.00  0.00     0.293 HD
ENDBRANCH  11  23
BRANCH   9  25
ATOM     25  O   UNL     1      56.870 158.593  42.412  1.00  0.00    -0.508 OA
ATOM     26  H   UNL     1      56.180 159.258  42.252  1.00  0.00     0.293 HD
ENDBRANCH   9  25
TORSDOF 5
ENDMDL
MODEL 7
REMARK VINA RESULT:    -7.336     14.706     16.177
REMARK INTER + INTRA:          -8.769
REMARK INTER:                  -8.460
REMARK INTRA:                  -0.309
REMARK UNBOUND:                -0.146
REMARK SMILES O=c1c([O-])c(-c2ccc(O)c(O)c2)oc2cc(O)cc(O)c12
REMARK SMILES IDX 1 1 2 2 3 3 4 4 5 5 14 6 15 7 16 8 17 9 19 10 20 11 22 12
REMARK SMILES IDX 6 13 7 14 13 15 8 16 11 17 9 18 12 19 10 21 21 23 18 25
REMARK H PARENT 12 20 10 22 21 24 18 26
ROOT
ATOM      1  O   UNL     1      46.463 164.226  41.426  1.00  0.00    -0.290 OA
ATOM      2  C   UNL     1      47.685 164.405  41.427  1.00  0.00     0.189 A 
ATOM      3  C   UNL     1      48.377 165.757  41.258  1.00  0.00    -0.014 A 
ATOM      4  O   UNL     1      47.596 166.743  41.082  1.00  0.00    -0.867 OA
ATOM      5  C   UNL     1      49.737 165.702  41.315  1.00  0.00     0.130 A 
ATOM      6  O   UNL     1      50.506 164.564  41.495  1.00  0.00    -0.456 OA
ATOM      7  C   UNL     1      49.893 163.356  41.635  1.00  0.00     0.146 A 
ATOM      8  C   UNL     1      50.724 162.245  41.810  1.00  0.00     0.094 A 
ATOM      9  C   UNL     1      50.157 160.982  41.960  1.00  0.00     0.123 A 
ATOM     10  C   UNL     1      48.778 160.815  41.938  1.00  0.00     0.093 A 
ATOM     11  C   UNL     1      47.961 161.930  41.763  1.00  0.00     0.134 A 
ATOM     12  C   UNL     1      48.518 163.209  41.611  1.00  0.00     0.106 A 
ENDROOT
BRANCH   5  13
ATOM     13  C   UNL     1      50.607 166.910  41.181  1.00  0.00     0.021 A 
ATOM     14  C   UNL     1      50.671 167.855  42.226  1.00  0.00     0.016 A 
ATOM     15  C   UNL     1      51.333 167.164  40.007  1.00  0.00     0.062 A 
ATOM     16  C   UNL     1      51.444 169.015  42.108  1.00  0.00     0.051 A 
ATOM     17  C   UNL     1      52.115 168.309  39.903  1.00  0.00     0.158 A 
ATOM     18  C   UNL     1      52.161 169.231  40.943  1.00  0.00     0.157 A 
BRANCH  17  19
ATOM     19  O   UNL     1      52.868 168.557  38.786  1.00  0.00    -0.504 OA
ATOM     20  H   UNL     1      53.734 168.139  38.953  1.00  0.00     0.293 HD
ENDBRANCH  17  19
BRANCH  18  21
ATOM     21  O   UNL     1      52.927 170.356  40.820  1.00  0.00    -0.504 OA
ATOM     22  H   UNL     1      52.404 170.919  40.214  1.00  0.00     0.293 HD
ENDBRANCH  18  21
ENDBRANCH   5  13
BRANCH  11  23
ATOM     23  O   UNL     1      46.607 161.706  41.750  1.00  0.00    -0.507 OA
ATOM     24  H   UNL     1      46.301 161.933  40.836  1.00  0.00     0.293 HD
ENDBRANCH  11  23
BRANCH   9  25
ATOM     25  O   UNL     1      50.936 159.875  42.134  1.00  0.00    -0.508 OA
ATOM     26  H   UNL     1      51.714 159.957  41.559  1.00  0.00     0.293 HD
ENDBRANCH   9  25
TORSDOF 5
ENDMDL
MODEL 8
REMARK VINA RESULT:    -6.461     12.127     14.810
REMARK INTER + INTRA:          -7.740
REMARK INTER:                  -7.601
REMARK INTRA:                  -0.140
REMARK UNBOUND:                -0.146
REMARK SMILES O=c1c([O-])c(-c2ccc(O)c(O)c2)oc2cc(O)cc(O)c12
REMARK SMILES IDX 1 1 2 2 3 3 4 4 5 5 14 6 15 7 16 8 17 9 19 10 20 11 22 12
REMARK SMILES IDX 6 13 7 14 13 15 8 16 11 17 9 18 12 19 10 21 21 23 18 25
REMARK H PARENT 12 20 10 22 21 24 18 26
ROOT
ATOM      1  O   UNL     1      58.078 161.520  35.517  1.00  0.00    -0.290 OA
ATOM      2  C   UNL     1      58.925 161.786  36.375  1.00  0.00     0.189 A 
ATOM      3  C   UNL     1      59.359 160.853  37.504  1.00  0.00    -0.014 A 
ATOM      4  O   UNL     1      58.760 159.734  37.538  1.00  0.00    -0.867 OA
ATOM      5  C   UNL     1      60.326 161.365  38.316  1.00  0.00     0.130 A 
ATOM      6  O   UNL     1      60.911 162.616  38.206  1.00  0.00    -0.456 OA
ATOM      7  C   UNL     1      60.518 163.455  37.208  1.00  0.00     0.146 A 
ATOM      8  C   UNL     1      61.144 164.704  37.154  1.00  0.00     0.094 A 
ATOM      9  C   UNL     1      60.787 165.607  36.156  1.00  0.00     0.123 A 
ATOM     10  C   UNL     1      59.818 165.279  35.215  1.00  0.00     0.093 A 
ATOM     11  C   UNL     1      59.202 164.031  35.280  1.00  0.00     0.134 A 
ATOM     12  C   UNL     1      59.553 163.111  36.281  1.00  0.00     0.106 A 
ENDROOT
BRANCH   5  13
ATOM     13  C   UNL     1      60.899 160.615  39.474  1.00  0.00     0.021 A 
ATOM     14  C   UNL     1      62.296 160.535  39.644  1.00  0.00     0.016 A 
ATOM     15  C   UNL     1      60.077 159.933  40.384  1.00  0.00     0.062 A 
ATOM     16  C   UNL     1      62.858 159.803  40.695  1.00  0.00     0.051 A 
ATOM     17  C   UNL     1      60.640 159.223  41.439  1.00  0.00     0.158 A 
ATOM     18  C   UNL     1      62.021 159.151  41.586  1.00  0.00     0.157 A 
BRANCH  17  19
ATOM     19  O   UNL     1      59.857 158.586  42.366  1.00  0.00    -0.504 OA
ATOM     20  H   UNL     1      59.009 159.068  42.370  1.00  0.00     0.293 HD
ENDBRANCH  17  19
BRANCH  18  21
ATOM     21  O   UNL     1      62.557 158.441  42.622  1.00  0.00    -0.504 OA
ATOM     22  H   UNL     1      61.882 158.526  43.326  1.00  0.00     0.293 HD
ENDBRANCH  18  21
ENDBRANCH   5  13
BRANCH  11  23
ATOM     23  O   UNL     1      58.254 163.761  34.325  1.00  0.00    -0.507 OA
ATOM     24  H   UNL     1      58.533 164.257  33.515  1.00  0.00     0.293 HD
ENDBRANCH  11  23
BRANCH   9  25
ATOM     25  O   UNL     1      61.376 166.835  36.070  1.00  0.00    -0.508 OA
ATOM     26  H   UNL     1      62.247 166.785  36.497  1.00  0.00     0.293 HD
ENDBRANCH   9  25
TORSDOF 5
ENDMDL
MODEL 9
REMARK VINA RESULT:    -6.398     12.250     14.504
REMARK INTER + INTRA:          -7.666
REMARK INTER:                  -7.656
REMARK INTRA:                  -0.009
REMARK UNBOUND:                -0.146
REMARK SMILES O=c1c([O-])c(-c2ccc(O)c(O)c2)oc2cc(O)cc(O)c12
REMARK SMILES IDX 1 1 2 2 3 3 4 4 5 5 14 6 15 7 16 8 17 9 19 10 20 11 22 12
REMARK SMILES IDX 6 13 7 14 13 15 8 16 11 17 9 18 12 19 10 21 21 23 18 25
REMARK H PARENT 12 20 10 22 21 24 18 26
ROOT
ATOM      1  O   UNL     1      58.402 161.120  36.399  1.00  0.00    -0.290 OA
ATOM      2  C   UNL     1      59.247 162.018  36.478  1.00  0.00     0.189 A 
ATOM      3  C   UNL     1      59.286 163.270  35.603  1.00  0.00    -0.014 A 
ATOM      4  O   UNL     1      58.372 163.342  34.725  1.00  0.00    -0.867 OA
ATOM      5  C   UNL     1      60.305 164.126  35.894  1.00  0.00     0.130 A 
ATOM      6  O   UNL     1      61.272 163.950  36.871  1.00  0.00    -0.456 OA
ATOM      7  C   UNL     1      61.247 162.829  37.644  1.00  0.00     0.146 A 
ATOM      8  C   UNL     1      62.252 162.709  38.608  1.00  0.00     0.094 A 
ATOM      9  C   UNL     1      62.280 161.586  39.432  1.00  0.00     0.123 A 
ATOM     10  C   UNL     1      61.322 160.588  39.305  1.00  0.00     0.093 A 
ATOM     11  C   UNL     1      60.326 160.720  38.340  1.00  0.00     0.134 A 
ATOM     12  C   UNL     1      60.285 161.846  37.504  1.00  0.00     0.106 A 
ENDROOT
BRANCH   5  13
ATOM     13  C   UNL     1      60.521 165.413  35.165  1.00  0.00     0.021 A 
ATOM     14  C   UNL     1      59.416 166.147  34.685  1.00  0.00     0.016 A 
ATOM     15  C   UNL     1      61.810 165.894  34.893  1.00  0.00     0.062 A 
ATOM     16  C   UNL     1      59.592 167.332  33.963  1.00  0.00     0.051 A 
ATOM     17  C   UNL     1      61.979 167.083  34.191  1.00  0.00     0.158 A 
ATOM     18  C   UNL     1      60.877 167.790  33.722  1.00  0.00     0.157 A 
BRANCH  17  19
ATOM     19  O   UNL     1      63.226 167.597  33.952  1.00  0.00    -0.504 OA
ATOM     20  H   UNL     1      63.130 168.565  34.020  1.00  0.00     0.293 HD
ENDBRANCH  17  19
BRANCH  18  21
ATOM     21  O   UNL     1      61.062 168.951  33.026  1.00  0.00    -0.504 OA
ATOM     22  H   UNL     1      61.637 168.679  32.283  1.00  0.00     0.293 HD
ENDBRANCH  18  21
ENDBRANCH   5  13
BRANCH  11  23
ATOM     23  O   UNL     1      59.406 159.704  38.260  1.00  0.00    -0.507 OA
ATOM     24  H   UNL     1      58.747 159.986  37.577  1.00  0.00     0.293 HD
ENDBRANCH  11  23
BRANCH   9  25
ATOM     25  O   UNL     1      63.244 161.433  40.386  1.00  0.00    -0.508 OA
ATOM     26  H   UNL     1      64.054 161.869  40.072  1.00  0.00     0.293 HD
ENDBRANCH   9  25
TORSDOF 5
ENDMDL
