MODEL 1
REMARK VINA RESULT:    -7.005      0.000      0.000
REMARK INTER + INTRA:         -14.925
REMARK INTER:                 -13.147
REMARK INTRA:                  -1.777
REMARK UNBOUND:                -1.777
REMARK SMILES C[C@@H]1O[C@@H](OC[C@H]2O[C@@H](Oc3ccc(-c4oc5cc(O)cc(O)c5c(=O)c4O)cc3)[C@H](O)[C@@H](O)[C@@H]2O)[C@H](O[C@@H]2O[C@H](CO)[C@@H](O)[C@H](O)[C@H]2O)[C@H](O)[C@H]1O
REMARK SMILES IDX 5 1 4 2 2 3 3 4 52 5 50 6 37 7 1 8 53 9 51 11 38 13 39 14
REMARK SMILES IDX 40 15 48 16 41 17 46 18 44 19 49 20 42 22 43 23 47 25 45 27
REMARK SMILES IDX 6 29 7 30 8 31 35 32 9 33 33 34 31 35 36 36 10 38 11 39
REMARK SMILES IDX 12 40 30 41 13 42 29 43 14 44 15 45 16 46 27 47 17 48 25 49
REMARK SMILES IDX 18 50 24 51 26 52 19 53 22 54 21 55 28 56 20 58 23 60 34 62
REMARK SMILES IDX 32 64
REMARK H PARENT 53 10 51 12 49 21 43 24 47 26 45 28 36 37 28 57 20 59 23 61
REMARK H PARENT 34 63 32 65
ROOT
ATOM      1  O   UNL     1      61.407 163.682  38.740  1.00  0.00    -0.347 OA
ENDROOT
BRANCH   1   2
ATOM      2  C   UNL     1      60.331 164.202  37.952  1.00  0.00     0.282 C 
ATOM      3  C   UNL     1      59.445 162.308  36.825  1.00  0.00     0.150 C 
ATOM      4  O   UNL     1      59.283 163.227  37.903  1.00  0.00    -0.344 OA
ATOM      5  C   UNL     1      59.174 163.030  35.494  1.00  0.00     0.174 C 
ATOM      6  C   UNL     1      59.829 164.423  35.462  1.00  0.00     0.180 C 
ATOM      7  C   UNL     1      60.890 164.594  36.556  1.00  0.00     0.209 C 
ATOM      8  C   UNL     1      58.472 161.153  37.036  1.00  0.00     0.041 C 
BRANCH   5   9
ATOM      9  O   UNL     1      59.674 162.231  34.415  1.00  0.00    -0.388 OA
ATOM     10  H   UNL     1      60.497 162.656  34.109  1.00  0.00     0.211 HD
ENDBRANCH   5   9
BRANCH   6  11
ATOM     11  O   UNL     1      58.818 165.438  35.581  1.00  0.00    -0.387 OA
ATOM     12  H   UNL     1      59.056 165.952  36.383  1.00  0.00     0.211 HD
ENDBRANCH   6  11
BRANCH   7  13
ATOM     13  O   UNL     1      61.289 165.984  36.541  1.00  0.00    -0.338 OA
BRANCH  13  14
ATOM     14  C   UNL     1      61.973 166.364  35.343  1.00  0.00     0.282 C 
ATOM     15  O   UNL     1      63.228 165.701  35.235  1.00  0.00    -0.341 OA
ATOM     16  C   UNL     1      62.185 167.889  35.412  1.00  0.00     0.202 C 
ATOM     17  C   UNL     1      63.925 166.051  34.032  1.00  0.00     0.178 C 
ATOM     18  C   UNL     1      62.981 168.359  34.198  1.00  0.00     0.179 C 
ATOM     19  C   UNL     1      64.270 167.549  34.048  1.00  0.00     0.177 C 
BRANCH  16  20
ATOM     20  O   UNL     1      60.941 168.605  35.448  1.00  0.00    -0.385 OA
ATOM     21  H   UNL     1      60.727 168.708  36.400  1.00  0.00     0.211 HD
ENDBRANCH  16  20
BRANCH  17  22
ATOM     22  C   UNL     1      65.189 165.191  33.900  1.00  0.00     0.191 C 
BRANCH  22  23
ATOM     23  O   UNL     1      65.381 164.738  32.562  1.00  0.00    -0.394 OA
ATOM     24  H   UNL     1      66.102 165.284  32.182  1.00  0.00     0.210 HD
ENDBRANCH  22  23
ENDBRANCH  17  22
BRANCH  18  25
ATOM     25  O   UNL     1      63.314 169.752  34.328  1.00  0.00    -0.387 OA
ATOM     26  H   UNL     1      63.756 169.983  33.486  1.00  0.00     0.211 HD
ENDBRANCH  18  25
BRANCH  19  27
ATOM     27  O   UNL     1      64.946 167.944  32.849  1.00  0.00    -0.387 OA
ATOM     28  H   UNL     1      65.739 168.433  33.158  1.00  0.00     0.211 HD
ENDBRANCH  19  27
ENDBRANCH  13  14
ENDBRANCH   7  13
ENDBRANCH   1   2
BRANCH   1  29
ATOM     29  C   UNL     1      61.162 163.750  40.150  1.00  0.00     0.198 C 
BRANCH  29  30
ATOM     30  C   UNL     1      61.320 162.363  40.795  1.00  0.00     0.180 C 
ATOM     31  O   UNL     1      60.068 161.943  41.343  1.00  0.00    -0.332 OA
ATOM     32  C   UNL     1      61.744 161.310  39.760  1.00  0.00     0.177 C 
ATOM     33  C   UNL     1      60.208 160.847  42.260  1.00  0.00     0.339 C 
ATOM     34  C   UNL     1      61.499 159.877  40.291  1.00  0.00     0.180 C 
ATOM     35  C   UNL     1      61.294 159.829  41.816  1.00  0.00     0.214 C 
BRANCH  32  36
ATOM     36  O   UNL     1      63.121 161.491  39.421  1.00  0.00    -0.387 OA
ATOM     37  H   UNL     1      63.500 160.606  39.269  1.00  0.00     0.211 HD
ENDBRANCH  32  36
BRANCH  33  38
ATOM     38  O   UNL     1      58.957 160.131  42.330  1.00  0.00    -0.462 OA
BRANCH  38  39
ATOM     39  C   UNL     1      57.912 160.969  42.050  1.00  0.00     0.123 A 
ATOM     40  C   UNL     1      57.860 162.238  42.620  1.00  0.00     0.047 A 
ATOM     41  C   UNL     1      56.932 160.552  41.153  1.00  0.00     0.047 A 
ATOM     42  C   UNL     1      56.781 163.076  42.343  1.00  0.00     0.016 A 
ATOM     43  C   UNL     1      55.851 161.393  40.875  1.00  0.00     0.016 A 
ATOM     44  C   UNL     1      55.755 162.654  41.485  1.00  0.00     0.021 A 
BRANCH  44  45
ATOM     45  C   UNL     1      54.601 163.523  41.206  1.00  0.00     0.180 A 
ATOM     46  O   UNL     1      53.384 162.934  41.516  1.00  0.00    -0.452 OA
ATOM     47  C   UNL     1      54.741 164.767  40.715  1.00  0.00     0.208 A 
ATOM     48  C   UNL     1      52.232 163.645  41.286  1.00  0.00     0.146 A 
ATOM     49  C   UNL     1      53.520 165.562  40.456  1.00  0.00     0.238 A 
ATOM     50  C   UNL     1      51.027 163.013  41.596  1.00  0.00     0.094 A 
ATOM     51  C   UNL     1      52.231 164.939  40.767  1.00  0.00     0.111 A 
ATOM     52  O   UNL     1      53.607 166.697  39.995  1.00  0.00    -0.285 OA
ATOM     53  C   UNL     1      49.829 163.690  41.383  1.00  0.00     0.123 A 
ATOM     54  C   UNL     1      51.022 165.609  40.558  1.00  0.00     0.134 A 
ATOM     55  C   UNL     1      49.818 164.983  40.866  1.00  0.00     0.093 A 
BRANCH  47  56
ATOM     56  O   UNL     1      55.961 165.368  40.446  1.00  0.00    -0.502 OA
ATOM     57  H   UNL     1      56.482 165.241  41.272  1.00  0.00     0.293 HD
ENDBRANCH  47  56
BRANCH  53  58
ATOM     58  O   UNL     1      48.628 163.113  41.671  1.00  0.00    -0.508 OA
ATOM     59  H   UNL     1      48.049 163.167  40.893  1.00  0.00     0.293 HD
ENDBRANCH  53  58
BRANCH  54  60
ATOM     60  O   UNL     1      50.950 166.880  40.053  1.00  0.00    -0.507 OA
ATOM     61  H   UNL     1      50.666 167.487  40.769  1.00  0.00     0.293 HD
ENDBRANCH  54  60
ENDBRANCH  44  45
ENDBRANCH  38  39
ENDBRANCH  33  38
BRANCH  34  62
ATOM     62  O   UNL     1      60.376 159.294  39.616  1.00  0.00    -0.387 OA
ATOM     63  H   UNL     1      59.736 160.006  39.416  1.00  0.00     0.211 HD
ENDBRANCH  34  62
BRANCH  35  64
ATOM     64  O   UNL     1      62.530 160.121  42.491  1.00  0.00    -0.384 OA
ATOM     65  H   UNL     1      62.858 160.976  42.159  1.00  0.00     0.211 HD
ENDBRANCH  35  64
ENDBRANCH  29  30
ENDBRANCH   1  29
TORSDOF 21
ENDMDL
MODEL 2
REMARK VINA RESULT:    -6.294      1.367      2.532
REMARK INTER + INTRA:         -13.590
REMARK INTER:                 -11.795
REMARK INTRA:                  -1.795
REMARK UNBOUND:                -1.777
REMARK SMILES C[C@@H]1O[C@@H](OC[C@H]2O[C@@H](Oc3ccc(-c4oc5cc(O)cc(O)c5c(=O)c4O)cc3)[C@H](O)[C@@H](O)[C@@H]2O)[C@H](O[C@@H]2O[C@H](CO)[C@@H](O)[C@H](O)[C@H]2O)[C@H](O)[C@H]1O
REMARK SMILES IDX 5 1 4 2 2 3 3 4 52 5 50 6 37 7 1 8 53 9 51 11 38 13 39 14
REMARK SMILES IDX 40 15 48 16 41 17 46 18 44 19 49 20 42 22 43 23 47 25 45 27
REMARK SMILES IDX 6 29 7 30 8 31 35 32 9 33 33 34 31 35 36 36 10 38 11 39
REMARK SMILES IDX 12 40 30 41 13 42 29 43 14 44 15 45 16 46 27 47 17 48 25 49
REMARK SMILES IDX 18 50 24 51 26 52 19 53 22 54 21 55 28 56 20 58 23 60 34 62
REMARK SMILES IDX 32 64
REMARK H PARENT 53 10 51 12 49 21 43 24 47 26 45 28 36 37 28 57 20 59 23 61
REMARK H PARENT 34 63 32 65
ROOT
ATOM      1  O   UNL     1      61.249 163.658  38.661  1.00  0.00    -0.347 OA
ENDROOT
BRANCH   1   2
ATOM      2  C   UNL     1      60.064 163.996  37.932  1.00  0.00     0.282 C 
ATOM      3  C   UNL     1      59.415 161.968  36.877  1.00  0.00     0.150 C 
ATOM      4  O   UNL     1      59.175 162.872  37.953  1.00  0.00    -0.344 OA
ATOM      5  C   UNL     1      58.963 162.617  35.557  1.00  0.00     0.174 C 
ATOM      6  C   UNL     1      59.396 164.092  35.473  1.00  0.00     0.180 C 
ATOM      7  C   UNL     1      60.478 164.442  36.502  1.00  0.00     0.209 C 
ATOM      8  C   UNL     1      58.641 160.685  37.155  1.00  0.00     0.041 C 
BRANCH   5   9
ATOM      9  O   UNL     1      59.517 161.883  34.458  1.00  0.00    -0.388 OA
ATOM     10  H   UNL     1      58.834 161.859  33.763  1.00  0.00     0.211 HD
ENDBRANCH   5   9
BRANCH   6  11
ATOM     11  O   UNL     1      58.251 164.945  35.641  1.00  0.00    -0.387 OA
ATOM     12  H   UNL     1      58.484 165.789  35.197  1.00  0.00     0.211 HD
ENDBRANCH   6  11
BRANCH   7  13
ATOM     13  O   UNL     1      60.660 165.875  36.450  1.00  0.00    -0.338 OA
BRANCH  13  14
ATOM     14  C   UNL     1      62.006 166.266  36.163  1.00  0.00     0.282 C 
ATOM     15  O   UNL     1      62.573 166.991  37.249  1.00  0.00    -0.341 OA
ATOM     16  C   UNL     1      61.957 167.153  34.904  1.00  0.00     0.202 C 
ATOM     17  C   UNL     1      63.930 167.378  36.994  1.00  0.00     0.178 C 
ATOM     18  C   UNL     1      63.355 167.674  34.580  1.00  0.00     0.179 C 
ATOM     19  C   UNL     1      63.978 168.349  35.802  1.00  0.00     0.177 C 
BRANCH  16  20
ATOM     20  O   UNL     1      61.460 166.439  33.761  1.00  0.00    -0.385 OA
ATOM     21  H   UNL     1      62.189 166.459  33.104  1.00  0.00     0.211 HD
ENDBRANCH  16  20
BRANCH  17  22
ATOM     22  C   UNL     1      64.530 168.016  38.254  1.00  0.00     0.191 C 
BRANCH  22  23
ATOM     23  O   UNL     1      65.951 167.913  38.271  1.00  0.00    -0.394 OA
ATOM     24  H   UNL     1      66.299 168.830  38.240  1.00  0.00     0.210 HD
ENDBRANCH  22  23
ENDBRANCH  17  22
BRANCH  18  25
ATOM     25  O   UNL     1      63.296 168.620  33.499  1.00  0.00    -0.387 OA
ATOM     26  H   UNL     1      62.625 169.276  33.776  1.00  0.00     0.211 HD
ENDBRANCH  18  25
BRANCH  19  27
ATOM     27  O   UNL     1      65.322 168.740  35.499  1.00  0.00    -0.387 OA
ATOM     28  H   UNL     1      65.737 168.907  36.372  1.00  0.00     0.211 HD
ENDBRANCH  19  27
ENDBRANCH  13  14
ENDBRANCH   7  13
ENDBRANCH   1   2
BRANCH   1  29
ATOM     29  C   UNL     1      61.103 163.801  40.079  1.00  0.00     0.198 C 
BRANCH  29  30
ATOM     30  C   UNL     1      61.341 162.456  40.787  1.00  0.00     0.180 C 
ATOM     31  O   UNL     1      60.105 161.959  41.305  1.00  0.00    -0.332 OA
ATOM     32  C   UNL     1      61.888 161.401  39.813  1.00  0.00     0.177 C 
ATOM     33  C   UNL     1      60.293 160.915  42.271  1.00  0.00     0.339 C 
ATOM     34  C   UNL     1      61.734 159.975  40.393  1.00  0.00     0.180 C 
ATOM     35  C   UNL     1      61.472 159.970  41.910  1.00  0.00     0.214 C 
BRANCH  32  36
ATOM     36  O   UNL     1      63.259 161.678  39.518  1.00  0.00    -0.387 OA
ATOM     37  H   UNL     1      63.455 162.567  39.865  1.00  0.00     0.211 HD
ENDBRANCH  32  36
BRANCH  33  38
ATOM     38  O   UNL     1      59.100 160.105  42.324  1.00  0.00    -0.462 OA
BRANCH  38  39
ATOM     39  C   UNL     1      57.989 160.879  42.123  1.00  0.00     0.123 A 
ATOM     40  C   UNL     1      56.879 160.352  41.468  1.00  0.00     0.047 A 
ATOM     41  C   UNL     1      57.969 162.178  42.622  1.00  0.00     0.047 A 
ATOM     42  C   UNL     1      55.760 161.154  41.250  1.00  0.00     0.016 A 
ATOM     43  C   UNL     1      56.847 162.981  42.404  1.00  0.00     0.016 A 
ATOM     44  C   UNL     1      55.741 162.484  41.697  1.00  0.00     0.021 A 
BRANCH  44  45
ATOM     45  C   UNL     1      54.574 163.343  41.451  1.00  0.00     0.180 A 
ATOM     46  O   UNL     1      54.910 164.598  40.964  1.00  0.00    -0.452 OA
ATOM     47  C   UNL     1      53.314 162.925  41.669  1.00  0.00     0.208 A 
ATOM     48  C   UNL     1      53.903 165.496  40.708  1.00  0.00     0.146 A 
ATOM     49  C   UNL     1      52.205 163.868  41.403  1.00  0.00     0.238 A 
ATOM     50  C   UNL     1      54.283 166.752  40.233  1.00  0.00     0.094 A 
ATOM     51  C   UNL     1      52.555 165.199  40.903  1.00  0.00     0.111 A 
ATOM     52  O   UNL     1      51.041 163.526  41.602  1.00  0.00    -0.285 OA
ATOM     53  C   UNL     1      53.302 167.700  39.957  1.00  0.00     0.123 A 
ATOM     54  C   UNL     1      51.578 166.159  40.621  1.00  0.00     0.134 A 
ATOM     55  C   UNL     1      51.952 167.412  40.147  1.00  0.00     0.093 A 
BRANCH  47  56
ATOM     56  O   UNL     1      52.979 161.656  42.116  1.00  0.00    -0.502 OA
ATOM     57  H   UNL     1      53.600 161.059  41.640  1.00  0.00     0.293 HD
ENDBRANCH  47  56
BRANCH  53  58
ATOM     58  O   UNL     1      53.625 168.940  39.492  1.00  0.00    -0.508 OA
ATOM     59  H   UNL     1      53.012 169.595  39.865  1.00  0.00     0.293 HD
ENDBRANCH  53  58
BRANCH  54  60
ATOM     60  O   UNL     1      50.239 165.932  40.788  1.00  0.00    -0.507 OA
ATOM     61  H   UNL     1      49.749 166.747  40.544  1.00  0.00     0.293 HD
ENDBRANCH  54  60
ENDBRANCH  44  45
ENDBRANCH  38  39
ENDBRANCH  33  38
BRANCH  34  62
ATOM     62  O   UNL     1      60.689 159.279  39.702  1.00  0.00    -0.387 OA
ATOM     63  H   UNL     1      60.237 158.692  40.342  1.00  0.00     0.211 HD
ENDBRANCH  34  62
BRANCH  35  64
ATOM     64  O   UNL     1      62.653 160.384  42.618  1.00  0.00    -0.384 OA
ATOM     65  H   UNL     1      62.589 160.046  43.530  1.00  0.00     0.211 HD
ENDBRANCH  35  64
ENDBRANCH  29  30
ENDBRANCH   1  29
TORSDOF 21
ENDMDL
