MODEL 1
REMARK VINA RESULT:    -3.085      0.000      0.000
REMARK INTER + INTRA:          -3.357
REMARK INTER:                  -4.438
REMARK INTRA:                   1.081
REMARK UNBOUND:                 1.081
REMARK SMILES O=c1c(O[C@@H]2O[C@H](CO)[C@@H](O)[C@H](O)[C@H]2O)c(-c2ccc(O)cc2)oc2cc(O)cc(O)c12
REMARK SMILES IDX 4 1 3 2 1 3 2 4 32 5 16 6 30 7 25 8 24 9 29 10 26 11 27 12
REMARK SMILES IDX 17 13 18 14 23 15 19 16 22 17 20 18 21 19 31 21 28 23 5 25
REMARK SMILES IDX 6 26 14 27 7 28 12 29 10 30 15 31 8 33 9 34 13 36 11 38
REMARK H PARENT 21 20 31 22 28 24 15 32 9 35 13 37 11 39
ROOT
ATOM      1  O   UNL     1      53.836 155.725  27.907  1.00  0.00    -0.454 OA
ENDROOT
BRANCH   1   2
ATOM      2  C   UNL     1      52.646 156.131  28.480  1.00  0.00     0.214 A 
ATOM      3  O   UNL     1      53.509 158.292  28.758  1.00  0.00    -0.285 OA
ATOM      4  C   UNL     1      52.557 157.541  28.949  1.00  0.00     0.239 A 
ATOM      5  C   UNL     1      51.294 157.944  29.608  1.00  0.00     0.111 A 
ATOM      6  C   UNL     1      51.597 155.312  28.672  1.00  0.00     0.180 A 
ATOM      7  C   UNL     1      51.072 159.231  30.117  1.00  0.00     0.134 A 
ATOM      8  C   UNL     1      50.282 156.987  29.716  1.00  0.00     0.146 A 
ATOM      9  O   UNL     1      50.402 155.703  29.249  1.00  0.00    -0.452 OA
ATOM     10  C   UNL     1      49.855 159.549  30.723  1.00  0.00     0.093 A 
ATOM     11  C   UNL     1      49.062 157.301  30.321  1.00  0.00     0.094 A 
ATOM     12  C   UNL     1      48.861 158.582  30.819  1.00  0.00     0.123 A 
BRANCH   6  13
ATOM     13  C   UNL     1      51.593 153.904  28.227  1.00  0.00     0.021 A 
ATOM     14  C   UNL     1      51.356 153.555  26.888  1.00  0.00     0.016 A 
ATOM     15  C   UNL     1      51.844 152.880  29.155  1.00  0.00     0.016 A 
ATOM     16  C   UNL     1      51.349 152.215  26.488  1.00  0.00     0.047 A 
ATOM     17  C   UNL     1      51.840 151.543  28.756  1.00  0.00     0.047 A 
ATOM     18  C   UNL     1      51.590 151.221  27.427  1.00  0.00     0.115 A 
BRANCH  18  19
ATOM     19  O   UNL     1      51.592 149.902  27.082  1.00  0.00    -0.508 OA
ATOM     20  H   UNL     1      51.403 149.829  26.133  1.00  0.00     0.293 HD
ENDBRANCH  18  19
ENDBRANCH   6  13
BRANCH   7  21
ATOM     21  O   UNL     1      52.036 160.194  30.032  1.00  0.00    -0.507 OA
ATOM     22  H   UNL     1      52.614 160.159  30.812  1.00  0.00     0.293 HD
ENDBRANCH   7  21
BRANCH  12  23
ATOM     23  O   UNL     1      47.689 158.937  31.419  1.00  0.00    -0.508 OA
ATOM     24  H   UNL     1      47.130 159.406  30.778  1.00  0.00     0.293 HD
ENDBRANCH  12  23
ENDBRANCH   1   2
BRANCH   1  25
ATOM     25  C   UNL     1      53.626 155.130  26.613  1.00  0.00     0.339 C 
ATOM     26  O   UNL     1      54.374 153.918  26.570  1.00  0.00    -0.332 OA
ATOM     27  C   UNL     1      54.170 156.122  25.556  1.00  0.00     0.214 C 
ATOM     28  C   UNL     1      54.159 153.161  25.361  1.00  0.00     0.179 C 
ATOM     29  C   UNL     1      54.516 155.417  24.228  1.00  0.00     0.180 C 
ATOM     30  C   UNL     1      53.857 154.035  24.126  1.00  0.00     0.177 C 
BRANCH  27  31
ATOM     31  O   UNL     1      53.228 157.173  25.274  1.00  0.00    -0.384 OA
ATOM     32  H   UNL     1      52.459 156.778  24.799  1.00  0.00     0.211 HD
ENDBRANCH  27  31
BRANCH  28  33
ATOM     33  C   UNL     1      55.420 152.308  25.174  1.00  0.00     0.191 C 
BRANCH  33  34
ATOM     34  O   UNL     1      56.574 153.073  25.536  1.00  0.00    -0.394 OA
ATOM     35  H   UNL     1      56.253 153.989  25.661  1.00  0.00     0.210 HD
ENDBRANCH  33  34
ENDBRANCH  28  33
BRANCH  29  36
ATOM     36  O   UNL     1      55.931 155.283  24.067  1.00  0.00    -0.387 OA
ATOM     37  H   UNL     1      56.077 154.763  23.255  1.00  0.00     0.211 HD
ENDBRANCH  29  36
BRANCH  30  38
ATOM     38  O   UNL     1      52.430 154.193  24.034  1.00  0.00    -0.387 OA
ATOM     39  H   UNL     1      52.151 153.901  23.148  1.00  0.00     0.211 HD
ENDBRANCH  30  38
ENDBRANCH   1  25
TORSDOF 11
ENDMDL
MODEL 2
REMARK VINA RESULT:    -2.715      2.306      8.801
REMARK INTER + INTRA:          -2.825
REMARK INTER:                  -3.753
REMARK INTRA:                   0.928
REMARK UNBOUND:                 1.081
REMARK SMILES O=c1c(O[C@@H]2O[C@H](CO)[C@@H](O)[C@H](O)[C@H]2O)c(-c2ccc(O)cc2)oc2cc(O)cc(O)c12
REMARK SMILES IDX 4 1 3 2 1 3 2 4 32 5 16 6 30 7 25 8 24 9 29 10 26 11 27 12
REMARK SMILES IDX 17 13 18 14 23 15 19 16 22 17 20 18 21 19 31 21 28 23 5 25
REMARK SMILES IDX 6 26 14 27 7 28 12 29 10 30 15 31 8 33 9 34 13 36 11 38
REMARK H PARENT 21 20 31 22 28 24 15 32 9 35 13 37 11 39
ROOT
ATOM      1  O   UNL     1      50.430 158.063  31.185  1.00  0.00    -0.454 OA
ENDROOT
BRANCH   1   2
ATOM      2  C   UNL     1      51.169 157.755  30.059  1.00  0.00     0.214 A 
ATOM      3  O   UNL     1      50.063 155.697  29.886  1.00  0.00    -0.285 OA
ATOM      4  C   UNL     1      50.933 156.430  29.425  1.00  0.00     0.239 A 
ATOM      5  C   UNL     1      51.770 156.096  28.251  1.00  0.00     0.111 A 
ATOM      6  C   UNL     1      52.109 158.567  29.543  1.00  0.00     0.180 A 
ATOM      7  C   UNL     1      51.674 154.879  27.562  1.00  0.00     0.134 A 
ATOM      8  C   UNL     1      52.692 157.052  27.816  1.00  0.00     0.146 A 
ATOM      9  O   UNL     1      52.860 158.271  28.420  1.00  0.00    -0.452 OA
ATOM     10  C   UNL     1      52.491 154.627  26.457  1.00  0.00     0.093 A 
ATOM     11  C   UNL     1      53.510 156.804  26.709  1.00  0.00     0.094 A 
ATOM     12  C   UNL     1      53.401 155.592  26.041  1.00  0.00     0.123 A 
BRANCH   6  13
ATOM     13  C   UNL     1      52.400 159.904  30.100  1.00  0.00     0.021 A 
ATOM     14  C   UNL     1      51.453 160.940  30.061  1.00  0.00     0.016 A 
ATOM     15  C   UNL     1      53.647 160.154  30.695  1.00  0.00     0.016 A 
ATOM     16  C   UNL     1      51.749 162.201  30.587  1.00  0.00     0.047 A 
ATOM     17  C   UNL     1      53.943 161.412  31.223  1.00  0.00     0.047 A 
ATOM     18  C   UNL     1      52.994 162.425  31.161  1.00  0.00     0.115 A 
BRANCH  18  19
ATOM     19  O   UNL     1      53.328 163.639  31.685  1.00  0.00    -0.508 OA
ATOM     20  H   UNL     1      52.517 164.162  31.798  1.00  0.00     0.293 HD
ENDBRANCH  18  19
ENDBRANCH   6  13
BRANCH   7  21
ATOM     21  O   UNL     1      50.788 153.918  27.957  1.00  0.00    -0.507 OA
ATOM     22  H   UNL     1      50.142 154.293  28.579  1.00  0.00     0.293 HD
ENDBRANCH   7  21
BRANCH  12  23
ATOM     23  O   UNL     1      54.177 155.304  24.958  1.00  0.00    -0.508 OA
ATOM     24  H   UNL     1      54.656 154.474  25.118  1.00  0.00     0.293 HD
ENDBRANCH  12  23
ENDBRANCH   1   2
BRANCH   1  25
ATOM     25  C   UNL     1      49.584 159.207  30.970  1.00  0.00     0.339 C 
ATOM     26  O   UNL     1      49.586 159.976  32.169  1.00  0.00    -0.332 OA
ATOM     27  C   UNL     1      48.157 158.678  30.685  1.00  0.00     0.214 C 
ATOM     28  C   UNL     1      48.862 161.218  32.048  1.00  0.00     0.179 C 
ATOM     29  C   UNL     1      47.079 159.741  30.981  1.00  0.00     0.180 C 
ATOM     30  C   UNL     1      47.675 161.153  31.065  1.00  0.00     0.177 C 
BRANCH  27  31
ATOM     31  O   UNL     1      48.006 158.254  29.319  1.00  0.00    -0.384 OA
ATOM     32  H   UNL     1      47.125 157.820  29.227  1.00  0.00     0.211 HD
ENDBRANCH  27  31
BRANCH  28  33
ATOM     33  C   UNL     1      48.418 161.582  33.470  1.00  0.00     0.191 C 
BRANCH  33  34
ATOM     34  O   UNL     1      49.560 161.629  34.331  1.00  0.00    -0.394 OA
ATOM     35  H   UNL     1      49.617 160.743  34.741  1.00  0.00     0.210 HD
ENDBRANCH  33  34
ENDBRANCH  28  33
BRANCH  29  36
ATOM     36  O   UNL     1      46.381 159.447  32.195  1.00  0.00    -0.387 OA
ATOM     37  H   UNL     1      46.078 158.523  32.132  1.00  0.00     0.211 HD
ENDBRANCH  29  36
BRANCH  30  38
ATOM     38  O   UNL     1      48.154 161.545  29.766  1.00  0.00    -0.387 OA
ATOM     39  H   UNL     1      49.099 161.312  29.712  1.00  0.00     0.211 HD
ENDBRANCH  30  38
ENDBRANCH   1  25
TORSDOF 11
ENDMDL
MODEL 3
REMARK VINA RESULT:    -1.694      2.471      6.182
REMARK INTER + INTRA:          -1.355
REMARK INTER:                  -2.711
REMARK INTRA:                   1.355
REMARK UNBOUND:                 1.081
REMARK SMILES O=c1c(O[C@@H]2O[C@H](CO)[C@@H](O)[C@H](O)[C@H]2O)c(-c2ccc(O)cc2)oc2cc(O)cc(O)c12
REMARK SMILES IDX 4 1 3 2 1 3 2 4 32 5 16 6 30 7 25 8 24 9 29 10 26 11 27 12
REMARK SMILES IDX 17 13 18 14 23 15 19 16 22 17 20 18 21 19 31 21 28 23 5 25
REMARK SMILES IDX 6 26 14 27 7 28 12 29 10 30 15 31 8 33 9 34 13 36 11 38
REMARK H PARENT 21 20 31 22 28 24 15 32 9 35 13 37 11 39
ROOT
ATOM      1  O   UNL     1      50.969 157.740  29.140  1.00  0.00    -0.454 OA
ENDROOT
BRANCH   1   2
ATOM      2  C   UNL     1      51.667 158.797  29.694  1.00  0.00     0.214 A 
ATOM      3  O   UNL     1      53.660 157.966  28.785  1.00  0.00    -0.285 OA
ATOM      4  C   UNL     1      53.139 158.832  29.481  1.00  0.00     0.239 A 
ATOM      5  C   UNL     1      53.877 159.942  30.125  1.00  0.00     0.111 A 
ATOM      6  C   UNL     1      51.092 159.755  30.442  1.00  0.00     0.180 A 
ATOM      7  C   UNL     1      55.267 160.096  30.030  1.00  0.00     0.134 A 
ATOM      8  C   UNL     1      53.139 160.877  30.855  1.00  0.00     0.146 A 
ATOM      9  O   UNL     1      51.778 160.816  31.006  1.00  0.00    -0.452 OA
ATOM     10  C   UNL     1      55.903 161.170  30.657  1.00  0.00     0.093 A 
ATOM     11  C   UNL     1      53.771 161.954  31.483  1.00  0.00     0.094 A 
ATOM     12  C   UNL     1      55.149 162.089  31.378  1.00  0.00     0.123 A 
BRANCH   6  13
ATOM     13  C   UNL     1      49.637 159.805  30.692  1.00  0.00     0.021 A 
ATOM     14  C   UNL     1      48.778 160.575  29.892  1.00  0.00     0.016 A 
ATOM     15  C   UNL     1      49.087 159.060  31.747  1.00  0.00     0.016 A 
ATOM     16  C   UNL     1      47.404 160.615  30.150  1.00  0.00     0.047 A 
ATOM     17  C   UNL     1      47.715 159.097  32.003  1.00  0.00     0.047 A 
ATOM     18  C   UNL     1      46.886 159.876  31.206  1.00  0.00     0.115 A 
BRANCH  18  19
ATOM     19  O   UNL     1      45.554 159.886  31.495  1.00  0.00    -0.508 OA
ATOM     20  H   UNL     1      45.237 158.969  31.534  1.00  0.00     0.293 HD
ENDBRANCH  18  19
ENDBRANCH   6  13
BRANCH   7  21
ATOM     21  O   UNL     1      56.024 159.203  29.328  1.00  0.00    -0.507 OA
ATOM     22  H   UNL     1      56.196 159.539  28.433  1.00  0.00     0.293 HD
ENDBRANCH   7  21
BRANCH  12  23
ATOM     23  O   UNL     1      55.811 163.121  31.973  1.00  0.00    -0.508 OA
ATOM     24  H   UNL     1      56.616 163.321  31.467  1.00  0.00     0.293 HD
ENDBRANCH  12  23
ENDBRANCH   1   2
BRANCH   1  25
ATOM     25  C   UNL     1      51.835 156.630  28.840  1.00  0.00     0.339 C 
ATOM     26  O   UNL     1      52.084 156.645  27.438  1.00  0.00    -0.332 OA
ATOM     27  C   UNL     1      51.079 155.336  29.228  1.00  0.00     0.214 C 
ATOM     28  C   UNL     1      53.036 155.646  27.018  1.00  0.00     0.179 C 
ATOM     29  C   UNL     1      51.624 154.104  28.477  1.00  0.00     0.180 C 
ATOM     30  C   UNL     1      53.013 154.365  27.879  1.00  0.00     0.177 C 
BRANCH  27  31
ATOM     31  O   UNL     1      51.159 155.073  30.640  1.00  0.00    -0.384 OA
ATOM     32  H   UNL     1      52.010 155.441  30.975  1.00  0.00     0.211 HD
ENDBRANCH  27  31
BRANCH  28  33
ATOM     33  C   UNL     1      52.720 155.361  25.545  1.00  0.00     0.191 C 
BRANCH  33  34
ATOM     34  O   UNL     1      52.750 153.949  25.314  1.00  0.00    -0.394 OA
ATOM     35  H   UNL     1      52.512 153.832  24.372  1.00  0.00     0.210 HD
ENDBRANCH  33  34
ENDBRANCH  28  33
BRANCH  29  36
ATOM     36  O   UNL     1      50.729 153.693  27.439  1.00  0.00    -0.387 OA
ATOM     37  H   UNL     1      50.613 152.729  27.528  1.00  0.00     0.211 HD
ENDBRANCH  29  36
BRANCH  30  38
ATOM     38  O   UNL     1      53.966 154.531  28.943  1.00  0.00    -0.387 OA
ATOM     39  H   UNL     1      54.857 154.405  28.571  1.00  0.00     0.211 HD
ENDBRANCH  30  38
ENDBRANCH   1  25
TORSDOF 11
ENDMDL
MODEL 4
REMARK VINA RESULT:    -1.001      3.282      6.775
REMARK INTER + INTRA:          -0.358
REMARK INTER:                  -1.666
REMARK INTRA:                   1.307
REMARK UNBOUND:                 1.081
REMARK SMILES O=c1c(O[C@@H]2O[C@H](CO)[C@@H](O)[C@H](O)[C@H]2O)c(-c2ccc(O)cc2)oc2cc(O)cc(O)c12
REMARK SMILES IDX 4 1 3 2 1 3 2 4 32 5 16 6 30 7 25 8 24 9 29 10 26 11 27 12
REMARK SMILES IDX 17 13 18 14 23 15 19 16 22 17 20 18 21 19 31 21 28 23 5 25
REMARK SMILES IDX 6 26 14 27 7 28 12 29 10 30 15 31 8 33 9 34 13 36 11 38
REMARK H PARENT 21 20 31 22 28 24 15 32 9 35 13 37 11 39
ROOT
ATOM      1  O   UNL     1      53.162 160.020  30.113  1.00  0.00    -0.454 OA
ENDROOT
BRANCH   1   2
ATOM      2  C   UNL     1      51.826 159.806  30.398  1.00  0.00     0.214 A 
ATOM      3  O   UNL     1      51.720 161.876  31.489  1.00  0.00    -0.285 OA
ATOM      4  C   UNL     1      51.117 160.852  31.182  1.00  0.00     0.239 A 
ATOM      5  C   UNL     1      49.702 160.583  31.523  1.00  0.00     0.111 A 
ATOM      6  C   UNL     1      51.162 158.691  30.045  1.00  0.00     0.180 A 
ATOM      7  C   UNL     1      48.912 161.466  32.271  1.00  0.00     0.134 A 
ATOM      8  C   UNL     1      49.139 159.388  31.066  1.00  0.00     0.146 A 
ATOM      9  O   UNL     1      49.827 158.461  30.328  1.00  0.00    -0.452 OA
ATOM     10  C   UNL     1      47.580 161.154  32.555  1.00  0.00     0.093 A 
ATOM     11  C   UNL     1      47.806 159.073  31.347  1.00  0.00     0.094 A 
ATOM     12  C   UNL     1      47.040 159.960  32.090  1.00  0.00     0.123 A 
BRANCH   6  13
ATOM     13  C   UNL     1      51.784 157.608  29.256  1.00  0.00     0.021 A 
ATOM     14  C   UNL     1      52.619 157.881  28.161  1.00  0.00     0.016 A 
ATOM     15  C   UNL     1      51.550 156.269  29.607  1.00  0.00     0.016 A 
ATOM     16  C   UNL     1      53.193 156.842  27.422  1.00  0.00     0.047 A 
ATOM     17  C   UNL     1      52.124 155.231  28.872  1.00  0.00     0.047 A 
ATOM     18  C   UNL     1      52.937 155.526  27.784  1.00  0.00     0.115 A 
BRANCH  18  19
ATOM     19  O   UNL     1      53.474 154.481  27.092  1.00  0.00    -0.508 OA
ATOM     20  H   UNL     1      54.214 154.810  26.556  1.00  0.00     0.293 HD
ENDBRANCH  18  19
ENDBRANCH   6  13
BRANCH   7  21
ATOM     21  O   UNL     1      49.425 162.642  32.737  1.00  0.00    -0.507 OA
ATOM     22  H   UNL     1      50.297 162.808  32.343  1.00  0.00     0.293 HD
ENDBRANCH   7  21
BRANCH  12  23
ATOM     23  O   UNL     1      45.736 159.697  32.391  1.00  0.00    -0.508 OA
ATOM     24  H   UNL     1      45.598 158.735  32.409  1.00  0.00     0.293 HD
ENDBRANCH  12  23
ENDBRANCH   1   2
BRANCH   1  25
ATOM     25  C   UNL     1      53.629 161.266  30.661  1.00  0.00     0.339 C 
ATOM     26  O   UNL     1      54.493 161.862  29.698  1.00  0.00    -0.332 OA
ATOM     27  C   UNL     1      54.423 160.936  31.948  1.00  0.00     0.214 C 
ATOM     28  C   UNL     1      54.943 163.179  30.077  1.00  0.00     0.179 C 
ATOM     29  C   UNL     1      55.414 162.059  32.318  1.00  0.00     0.180 C 
ATOM     30  C   UNL     1      55.082 163.375  31.601  1.00  0.00     0.177 C 
BRANCH  27  31
ATOM     31  O   UNL     1      53.552 160.718  33.073  1.00  0.00    -0.384 OA
ATOM     32  H   UNL     1      52.827 160.112  32.788  1.00  0.00     0.211 HD
ENDBRANCH  27  31
BRANCH  28  33
ATOM     33  C   UNL     1      56.272 163.394  29.342  1.00  0.00     0.191 C 
BRANCH  33  34
ATOM     34  O   UNL     1      56.389 162.445  28.277  1.00  0.00    -0.394 OA
ATOM     35  H   UNL     1      56.156 161.579  28.670  1.00  0.00     0.210 HD
ENDBRANCH  33  34
ENDBRANCH  28  33
BRANCH  29  36
ATOM     36  O   UNL     1      56.761 161.680  32.017  1.00  0.00    -0.387 OA
ATOM     37  H   UNL     1      57.189 162.454  31.609  1.00  0.00     0.211 HD
ENDBRANCH  29  36
BRANCH  30  38
ATOM     38  O   UNL     1      53.831 163.884  32.097  1.00  0.00    -0.387 OA
ATOM     39  H   UNL     1      54.027 164.514  32.815  1.00  0.00     0.211 HD
ENDBRANCH  30  38
ENDBRANCH   1  25
TORSDOF 11
ENDMDL
MODEL 5
REMARK VINA RESULT:    -0.578      2.160      8.019
REMARK INTER + INTRA:           0.249
REMARK INTER:                   0.709
REMARK INTRA:                  -0.460
REMARK UNBOUND:                 1.081
REMARK SMILES O=c1c(O[C@@H]2O[C@H](CO)[C@@H](O)[C@H](O)[C@H]2O)c(-c2ccc(O)cc2)oc2cc(O)cc(O)c12
REMARK SMILES IDX 4 1 3 2 1 3 2 4 32 5 16 6 30 7 25 8 24 9 29 10 26 11 27 12
REMARK SMILES IDX 17 13 18 14 23 15 19 16 22 17 20 18 21 19 31 21 28 23 5 25
REMARK SMILES IDX 6 26 14 27 7 28 12 29 10 30 15 31 8 33 9 34 13 36 11 38
REMARK H PARENT 21 20 31 22 28 24 15 32 9 35 13 37 11 39
ROOT
ATOM      1  O   UNL     1      51.425 159.559  28.991  1.00  0.00    -0.454 OA
ENDROOT
BRANCH   1   2
ATOM      2  C   UNL     1      51.331 158.182  29.069  1.00  0.00     0.214 A 
ATOM      3  O   UNL     1      53.256 157.968  27.751  1.00  0.00    -0.285 OA
ATOM      4  C   UNL     1      52.351 157.383  28.338  1.00  0.00     0.239 A 
ATOM      5  C   UNL     1      52.204 155.911  28.389  1.00  0.00     0.111 A 
ATOM      6  C   UNL     1      50.349 157.542  29.728  1.00  0.00     0.180 A 
ATOM      7  C   UNL     1      53.075 155.030  27.734  1.00  0.00     0.134 A 
ATOM      8  C   UNL     1      51.143 155.389  29.134  1.00  0.00     0.146 A 
ATOM      9  O   UNL     1      50.239 156.166  29.810  1.00  0.00    -0.452 OA
ATOM     10  C   UNL     1      52.884 153.649  27.826  1.00  0.00     0.093 A 
ATOM     11  C   UNL     1      50.949 154.008  29.230  1.00  0.00     0.094 A 
ATOM     12  C   UNL     1      51.823 153.151  28.573  1.00  0.00     0.123 A 
BRANCH   6  13
ATOM     13  C   UNL     1      49.304 158.255  30.491  1.00  0.00     0.021 A 
ATOM     14  C   UNL     1      49.335 158.326  31.892  1.00  0.00     0.016 A 
ATOM     15  C   UNL     1      48.256 158.891  29.807  1.00  0.00     0.016 A 
ATOM     16  C   UNL     1      48.333 159.000  32.597  1.00  0.00     0.047 A 
ATOM     17  C   UNL     1      47.257 159.567  30.510  1.00  0.00     0.047 A 
ATOM     18  C   UNL     1      47.301 159.612  31.898  1.00  0.00     0.115 A 
BRANCH  18  19
ATOM     19  O   UNL     1      46.302 160.279  32.543  1.00  0.00    -0.508 OA
ATOM     20  H   UNL     1      45.525 159.699  32.596  1.00  0.00     0.293 HD
ENDBRANCH  18  19
ENDBRANCH   6  13
BRANCH   7  21
ATOM     21  O   UNL     1      54.122 155.501  26.994  1.00  0.00    -0.507 OA
ATOM     22  H   UNL     1      53.939 156.405  26.692  1.00  0.00     0.293 HD
ENDBRANCH   7  21
BRANCH  12  23
ATOM     23  O   UNL     1      51.675 151.798  28.636  1.00  0.00    -0.508 OA
ATOM     24  H   UNL     1      52.542 151.386  28.787  1.00  0.00     0.293 HD
ENDBRANCH  12  23
ENDBRANCH   1   2
BRANCH   1  25
ATOM     25  C   UNL     1      51.761 160.142  30.264  1.00  0.00     0.339 C 
ATOM     26  O   UNL     1      50.662 160.952  30.669  1.00  0.00    -0.332 OA
ATOM     27  C   UNL     1      53.016 161.023  30.052  1.00  0.00     0.214 C 
ATOM     28  C   UNL     1      50.822 161.508  31.990  1.00  0.00     0.179 C 
ATOM     29  C   UNL     1      53.151 162.105  31.143  1.00  0.00     0.180 C 
ATOM     30  C   UNL     1      52.291 161.787  32.374  1.00  0.00     0.177 C 
BRANCH  27  31
ATOM     31  O   UNL     1      54.223 160.241  30.042  1.00  0.00    -0.384 OA
ATOM     32  H   UNL     1      53.976 159.291  30.139  1.00  0.00     0.211 HD
ENDBRANCH  27  31
BRANCH  28  33
ATOM     33  C   UNL     1      49.964 162.778  32.016  1.00  0.00     0.191 C 
BRANCH  33  34
ATOM     34  O   UNL     1      48.613 162.437  32.342  1.00  0.00    -0.394 OA
ATOM     35  H   UNL     1      48.077 163.214  32.087  1.00  0.00     0.210 HD
ENDBRANCH  33  34
ENDBRANCH  28  33
BRANCH  29  36
ATOM     36  O   UNL     1      52.801 163.397  30.638  1.00  0.00    -0.387 OA
ATOM     37  H   UNL     1      52.670 163.978  31.409  1.00  0.00     0.211 HD
ENDBRANCH  29  36
BRANCH  30  38
ATOM     38  O   UNL     1      52.808 160.615  33.027  1.00  0.00    -0.387 OA
ATOM     39  H   UNL     1      52.695 160.732  33.988  1.00  0.00     0.211 HD
ENDBRANCH  30  38
ENDBRANCH   1  25
TORSDOF 11
ENDMDL
MODEL 6
REMARK VINA RESULT:    -0.326      1.755      4.469
REMARK INTER + INTRA:           0.612
REMARK INTER:                  -0.320
REMARK INTRA:                   0.932
REMARK UNBOUND:                 1.081
REMARK SMILES O=c1c(O[C@@H]2O[C@H](CO)[C@@H](O)[C@H](O)[C@H]2O)c(-c2ccc(O)cc2)oc2cc(O)cc(O)c12
REMARK SMILES IDX 4 1 3 2 1 3 2 4 32 5 16 6 30 7 25 8 24 9 29 10 26 11 27 12
REMARK SMILES IDX 17 13 18 14 23 15 19 16 22 17 20 18 21 19 31 21 28 23 5 25
REMARK SMILES IDX 6 26 14 27 7 28 12 29 10 30 15 31 8 33 9 34 13 36 11 38
REMARK H PARENT 21 20 31 22 28 24 15 32 9 35 13 37 11 39
ROOT
ATOM      1  O   UNL     1      50.714 155.503  27.961  1.00  0.00    -0.454 OA
ENDROOT
BRANCH   1   2
ATOM      2  C   UNL     1      51.015 156.705  28.574  1.00  0.00     0.214 A 
ATOM      3  O   UNL     1      49.294 156.355  30.123  1.00  0.00    -0.285 OA
ATOM      4  C   UNL     1      50.173 157.115  29.729  1.00  0.00     0.239 A 
ATOM      5  C   UNL     1      50.476 158.429  30.340  1.00  0.00     0.111 A 
ATOM      6  C   UNL     1      51.991 157.529  28.152  1.00  0.00     0.180 A 
ATOM      7  C   UNL     1      49.757 158.957  31.421  1.00  0.00     0.134 A 
ATOM      8  C   UNL     1      51.537 159.165  29.806  1.00  0.00     0.146 A 
ATOM      9  O   UNL     1      52.301 158.736  28.752  1.00  0.00    -0.452 OA
ATOM     10  C   UNL     1      50.098 160.202  31.955  1.00  0.00     0.093 A 
ATOM     11  C   UNL     1      51.882 160.411  30.338  1.00  0.00     0.094 A 
ATOM     12  C   UNL     1      51.157 160.917  31.408  1.00  0.00     0.123 A 
BRANCH   6  13
ATOM     13  C   UNL     1      52.883 157.195  27.023  1.00  0.00     0.021 A 
ATOM     14  C   UNL     1      54.241 157.550  27.027  1.00  0.00     0.016 A 
ATOM     15  C   UNL     1      52.373 156.496  25.917  1.00  0.00     0.016 A 
ATOM     16  C   UNL     1      55.068 157.232  25.945  1.00  0.00     0.047 A 
ATOM     17  C   UNL     1      53.198 156.175  24.838  1.00  0.00     0.047 A 
ATOM     18  C   UNL     1      54.536 156.548  24.858  1.00  0.00     0.115 A 
BRANCH  18  19
ATOM     19  O   UNL     1      55.304 156.219  23.781  1.00  0.00    -0.508 OA
ATOM     20  H   UNL     1      55.894 155.489  24.031  1.00  0.00     0.293 HD
ENDBRANCH  18  19
ENDBRANCH   6  13
BRANCH   7  21
ATOM     21  O   UNL     1      48.713 158.270  31.970  1.00  0.00    -0.507 OA
ATOM     22  H   UNL     1      47.874 158.564  31.577  1.00  0.00     0.293 HD
ENDBRANCH   7  21
BRANCH  12  23
ATOM     23  O   UNL     1      51.455 162.127  31.961  1.00  0.00    -0.508 OA
ATOM     24  H   UNL     1      52.199 162.024  32.578  1.00  0.00     0.293 HD
ENDBRANCH  12  23
ENDBRANCH   1   2
BRANCH   1  25
ATOM     25  C   UNL     1      51.798 154.563  28.073  1.00  0.00     0.339 C 
ATOM     26  O   UNL     1      52.000 153.984  26.787  1.00  0.00    -0.332 OA
ATOM     27  C   UNL     1      51.360 153.471  29.079  1.00  0.00     0.214 C 
ATOM     28  C   UNL     1      53.140 153.102  26.733  1.00  0.00     0.179 C 
ATOM     29  C   UNL     1      52.147 152.159  28.884  1.00  0.00     0.180 C 
ATOM     30  C   UNL     1      53.426 152.375  28.064  1.00  0.00     0.177 C 
BRANCH  27  31
ATOM     31  O   UNL     1      51.533 153.899  30.441  1.00  0.00    -0.384 OA
ATOM     32  H   UNL     1      52.274 153.380  30.836  1.00  0.00     0.211 HD
ENDBRANCH  27  31
BRANCH  28  33
ATOM     33  C   UNL     1      52.857 152.124  25.587  1.00  0.00     0.191 C 
BRANCH  33  34
ATOM     34  O   UNL     1      53.261 150.806  25.971  1.00  0.00    -0.394 OA
ATOM     35  H   UNL     1      54.239 150.823  25.980  1.00  0.00     0.210 HD
ENDBRANCH  33  34
ENDBRANCH  28  33
BRANCH  29  36
ATOM     36  O   UNL     1      51.339 151.161  28.251  1.00  0.00    -0.387 OA
ATOM     37  H   UNL     1      51.806 150.311  28.352  1.00  0.00     0.211 HD
ENDBRANCH  29  36
BRANCH  30  38
ATOM     38  O   UNL     1      54.345 153.182  28.820  1.00  0.00    -0.387 OA
ATOM     39  H   UNL     1      54.274 152.921  29.756  1.00  0.00     0.211 HD
ENDBRANCH  30  38
ENDBRANCH   1  25
TORSDOF 11
ENDMDL
