MODEL 1
REMARK VINA RESULT:    -2.246      0.000      0.000
REMARK INTER + INTRA:          -3.568
REMARK INTER:                  -3.362
REMARK INTRA:                  -0.206
REMARK UNBOUND:                -0.206
REMARK SMILES O=c1c(O[C@@H]2O[C@H]([C@H](O)CO)[C@H](O)[C@H]2O)c(-c2ccc([O-])c(O)c2)oc2cc(O)cc(O)c12
REMARK SMILES IDX 5 1 6 2 7 3 12 4 14 5 4 6 3 7 1 8 2 9 33 10 16 11 31 12
REMARK SMILES IDX 26 13 25 14 30 15 27 16 28 17 17 18 18 19 24 20 19 21 22 22
REMARK SMILES IDX 20 23 21 24 23 25 32 27 29 29 15 31 8 33 9 34 10 36 11 37
REMARK SMILES IDX 13 39
REMARK H PARENT 23 26 32 28 29 30 15 32 9 35 11 38 13 40
ROOT
ATOM      1  C   UNL     1      49.345 159.743  30.454  1.00  0.00     0.339 C 
ATOM      2  O   UNL     1      49.346 161.075  31.000  1.00  0.00    -0.332 OA
ATOM      3  C   UNL     1      48.240 161.186  31.923  1.00  0.00     0.185 C 
ATOM      4  C   UNL     1      47.194 160.237  31.333  1.00  0.00     0.181 C 
ATOM      5  C   UNL     1      48.045 159.061  30.894  1.00  0.00     0.214 C 
ENDROOT
BRANCH   1   6
ATOM      6  O   UNL     1      50.424 158.976  30.991  1.00  0.00    -0.454 OA
BRANCH   6   7
ATOM      7  C   UNL     1      51.175 158.315  30.041  1.00  0.00     0.214 A 
ATOM      8  O   UNL     1      49.667 156.474  29.901  1.00  0.00    -0.285 OA
ATOM      9  C   UNL     1      50.712 157.002  29.521  1.00  0.00     0.239 A 
ATOM     10  C   UNL     1      51.566 156.343  28.523  1.00  0.00     0.111 A 
ATOM     11  C   UNL     1      52.373 158.768  29.627  1.00  0.00     0.180 A 
ATOM     12  C   UNL     1      51.209 155.121  27.941  1.00  0.00     0.134 A 
ATOM     13  C   UNL     1      52.760 156.962  28.155  1.00  0.00     0.146 A 
ATOM     14  O   UNL     1      53.180 158.154  28.689  1.00  0.00    -0.452 OA
ATOM     15  C   UNL     1      52.037 154.523  26.993  1.00  0.00     0.093 A 
ATOM     16  C   UNL     1      53.594 156.368  27.207  1.00  0.00     0.094 A 
ATOM     17  C   UNL     1      53.225 155.154  26.634  1.00  0.00     0.123 A 
BRANCH  11  18
ATOM     18  C   UNL     1      52.911 160.029  30.156  1.00  0.00     0.025 A 
ATOM     19  C   UNL     1      52.083 161.151  30.289  1.00  0.00     0.012 A 
ATOM     20  C   UNL     1      54.267 160.155  30.440  1.00  0.00     0.057 A 
ATOM     21  C   UNL     1      52.624 162.398  30.632  1.00  0.00    -0.004 A 
ATOM     22  C   UNL     1      54.768 161.412  30.768  1.00  0.00     0.108 A 
ATOM     23  C   UNL     1      53.997 162.593  30.844  1.00  0.00    -0.066 A 
ATOM     24  O   UNL     1      54.522 163.742  31.040  1.00  0.00    -0.870 OA
BRANCH  22  25
ATOM     25  O   UNL     1      56.119 161.552  30.989  1.00  0.00    -0.509 OA
ATOM     26  H   UNL     1      56.386 161.803  30.070  1.00  0.00     0.293 HD
ENDBRANCH  22  25
ENDBRANCH  11  18
BRANCH  12  27
ATOM     27  O   UNL     1      50.056 154.452  28.256  1.00  0.00    -0.507 OA
ATOM     28  H   UNL     1      49.845 154.632  29.198  1.00  0.00     0.293 HD
ENDBRANCH  12  27
BRANCH  17  29
ATOM     29  O   UNL     1      54.066 154.605  25.712  1.00  0.00    -0.508 OA
ATOM     30  H   UNL     1      54.945 155.007  25.811  1.00  0.00     0.293 HD
ENDBRANCH  17  29
ENDBRANCH   6   7
ENDBRANCH   1   6
BRANCH   5  31
ATOM     31  O   UNL     1      47.409 158.321  29.845  1.00  0.00    -0.384 OA
ATOM     32  H   UNL     1      48.123 158.064  29.222  1.00  0.00     0.211 HD
ENDBRANCH   5  31
BRANCH   3  33
ATOM     33  C   UNL     1      48.709 160.897  33.364  1.00  0.00     0.171 C 
BRANCH  33  34
ATOM     34  O   UNL     1      47.962 161.665  34.318  1.00  0.00    -0.388 OA
ATOM     35  H   UNL     1      47.028 161.465  34.089  1.00  0.00     0.211 HD
ENDBRANCH  33  34
BRANCH  33  36
ATOM     36  C   UNL     1      50.195 161.239  33.554  1.00  0.00     0.190 C 
BRANCH  36  37
ATOM     37  O   UNL     1      50.416 162.577  33.093  1.00  0.00    -0.394 OA
ATOM     38  H   UNL     1      50.539 162.495  32.113  1.00  0.00     0.210 HD
ENDBRANCH  36  37
ENDBRANCH  33  36
ENDBRANCH   3  33
BRANCH   4  39
ATOM     39  O   UNL     1      46.134 159.835  32.182  1.00  0.00    -0.387 OA
ATOM     40  H   UNL     1      46.549 159.407  32.952  1.00  0.00     0.211 HD
ENDBRANCH   4  39
TORSDOF 12
ENDMDL
MODEL 2
REMARK VINA RESULT:    -2.134      2.472      9.317
REMARK INTER + INTRA:          -3.401
REMARK INTER:                  -4.450
REMARK INTRA:                   1.050
REMARK UNBOUND:                -0.206
REMARK SMILES O=c1c(O[C@@H]2O[C@H]([C@H](O)CO)[C@H](O)[C@H]2O)c(-c2ccc([O-])c(O)c2)oc2cc(O)cc(O)c12
REMARK SMILES IDX 5 1 6 2 7 3 12 4 14 5 4 6 3 7 1 8 2 9 33 10 16 11 31 12
REMARK SMILES IDX 26 13 25 14 30 15 27 16 28 17 17 18 18 19 24 20 19 21 22 22
REMARK SMILES IDX 20 23 21 24 23 25 32 27 29 29 15 31 8 33 9 34 10 36 11 37
REMARK SMILES IDX 13 39
REMARK H PARENT 23 26 32 28 29 30 15 32 9 35 11 38 13 40
ROOT
ATOM      1  C   UNL     1      53.293 155.700  25.999  1.00  0.00     0.339 C 
ATOM      2  O   UNL     1      52.924 154.440  25.408  1.00  0.00    -0.332 OA
ATOM      3  C   UNL     1      54.028 153.982  24.595  1.00  0.00     0.185 C 
ATOM      4  C   UNL     1      54.668 155.284  24.108  1.00  0.00     0.181 C 
ATOM      5  C   UNL     1      54.605 156.153  25.349  1.00  0.00     0.214 C 
ENDROOT
BRANCH   1   6
ATOM      6  O   UNL     1      53.547 155.547  27.396  1.00  0.00    -0.454 OA
BRANCH   6   7
ATOM      7  C   UNL     1      52.555 156.055  28.210  1.00  0.00     0.214 A 
ATOM      8  O   UNL     1      53.545 158.219  28.332  1.00  0.00    -0.285 OA
ATOM      9  C   UNL     1      52.628 157.468  28.663  1.00  0.00     0.239 A 
ATOM     10  C   UNL     1      51.548 157.942  29.541  1.00  0.00     0.111 A 
ATOM     11  C   UNL     1      51.560 155.289  28.694  1.00  0.00     0.180 A 
ATOM     12  C   UNL     1      51.499 159.264  29.999  1.00  0.00     0.134 A 
ATOM     13  C   UNL     1      50.554 157.041  29.921  1.00  0.00     0.146 A 
ATOM     14  O   UNL     1      50.542 155.728  29.519  1.00  0.00    -0.452 OA
ATOM     15  C   UNL     1      50.460 159.685  30.826  1.00  0.00     0.093 A 
ATOM     16  C   UNL     1      49.512 157.456  30.749  1.00  0.00     0.094 A 
ATOM     17  C   UNL     1      49.473 158.775  31.194  1.00  0.00     0.123 A 
BRANCH  11  18
ATOM     18  C   UNL     1      51.474 153.868  28.331  1.00  0.00     0.025 A 
ATOM     19  C   UNL     1      51.479 152.882  29.326  1.00  0.00     0.012 A 
ATOM     20  C   UNL     1      51.484 153.478  26.996  1.00  0.00     0.057 A 
ATOM     21  C   UNL     1      51.567 151.525  28.984  1.00  0.00    -0.004 A 
ATOM     22  C   UNL     1      51.580 152.121  26.696  1.00  0.00     0.108 A 
ATOM     23  C   UNL     1      51.665 151.087  27.655  1.00  0.00    -0.066 A 
ATOM     24  O   UNL     1      51.864 149.867  27.329  1.00  0.00    -0.870 OA
BRANCH  22  25
ATOM     25  O   UNL     1      51.652 151.735  25.377  1.00  0.00    -0.509 OA
ATOM     26  H   UNL     1      50.813 152.154  25.062  1.00  0.00     0.293 HD
ENDBRANCH  22  25
ENDBRANCH  11  18
BRANCH  12  27
ATOM     27  O   UNL     1      52.442 160.203  29.674  1.00  0.00    -0.507 OA
ATOM     28  H   UNL     1      52.284 160.999  30.227  1.00  0.00     0.293 HD
ENDBRANCH  12  27
BRANCH  17  29
ATOM     29  O   UNL     1      48.438 159.142  32.003  1.00  0.00    -0.508 OA
ATOM     30  H   UNL     1      47.967 158.343  32.290  1.00  0.00     0.293 HD
ENDBRANCH  17  29
ENDBRANCH   6   7
ENDBRANCH   1   6
BRANCH   5  31
ATOM     31  O   UNL     1      54.619 157.545  25.010  1.00  0.00    -0.384 OA
ATOM     32  H   UNL     1      54.520 158.031  25.857  1.00  0.00     0.211 HD
ENDBRANCH   5  31
BRANCH   3  33
ATOM     33  C   UNL     1      54.927 153.022  25.402  1.00  0.00     0.171 C 
BRANCH  33  34
ATOM     34  O   UNL     1      56.316 153.328  25.211  1.00  0.00    -0.388 OA
ATOM     35  H   UNL     1      56.534 153.888  25.987  1.00  0.00     0.211 HD
ENDBRANCH  33  34
BRANCH  33  36
ATOM     36  C   UNL     1      54.711 151.559  24.982  1.00  0.00     0.190 C 
BRANCH  36  37
ATOM     37  O   UNL     1      54.014 151.542  23.731  1.00  0.00    -0.394 OA
ATOM     38  H   UNL     1      54.714 151.377  23.049  1.00  0.00     0.210 HD
ENDBRANCH  36  37
ENDBRANCH  33  36
ENDBRANCH   3  33
BRANCH   4  39
ATOM     39  O   UNL     1      55.983 155.201  23.588  1.00  0.00    -0.387 OA
ATOM     40  H   UNL     1      56.351 156.102  23.633  1.00  0.00     0.211 HD
ENDBRANCH   4  39
TORSDOF 12
ENDMDL
MODEL 3
REMARK VINA RESULT:    -0.828      3.519      6.638
REMARK INTER + INTRA:          -1.445
REMARK INTER:                  -1.438
REMARK INTRA:                  -0.008
REMARK UNBOUND:                -0.206
REMARK SMILES O=c1c(O[C@@H]2O[C@H]([C@H](O)CO)[C@H](O)[C@H]2O)c(-c2ccc([O-])c(O)c2)oc2cc(O)cc(O)c12
REMARK SMILES IDX 5 1 6 2 7 3 12 4 14 5 4 6 3 7 1 8 2 9 33 10 16 11 31 12
REMARK SMILES IDX 26 13 25 14 30 15 27 16 28 17 17 18 18 19 24 20 19 21 22 22
REMARK SMILES IDX 20 23 21 24 23 25 32 27 29 29 15 31 8 33 9 34 10 36 11 37
REMARK SMILES IDX 13 39
REMARK H PARENT 23 26 32 28 29 30 15 32 9 35 11 38 13 40
ROOT
ATOM      1  C   UNL     1      52.491 155.255  28.255  1.00  0.00     0.339 C 
ATOM      2  O   UNL     1      51.934 154.825  29.511  1.00  0.00    -0.332 OA
ATOM      3  C   UNL     1      51.331 155.970  30.153  1.00  0.00     0.185 C 
ATOM      4  C   UNL     1      52.196 157.138  29.672  1.00  0.00     0.181 C 
ATOM      5  C   UNL     1      52.423 156.785  28.215  1.00  0.00     0.214 C 
ENDROOT
BRANCH   1   6
ATOM      6  O   UNL     1      51.707 154.771  27.163  1.00  0.00    -0.454 OA
BRANCH   6   7
ATOM      7  C   UNL     1      52.266 153.698  26.498  1.00  0.00     0.214 A 
ATOM      8  O   UNL     1      51.196 152.079  27.881  1.00  0.00    -0.285 OA
ATOM      9  C   UNL     1      51.953 152.315  26.939  1.00  0.00     0.239 A 
ATOM     10  C   UNL     1      52.594 151.219  26.198  1.00  0.00     0.111 A 
ATOM     11  C   UNL     1      53.171 153.855  25.514  1.00  0.00     0.180 A 
ATOM     12  C   UNL     1      52.342 149.876  26.506  1.00  0.00     0.134 A 
ATOM     13  C   UNL     1      53.474 151.538  25.166  1.00  0.00     0.146 A 
ATOM     14  O   UNL     1      53.777 152.830  24.814  1.00  0.00    -0.452 OA
ATOM     15  C   UNL     1      52.961 148.860  25.783  1.00  0.00     0.093 A 
ATOM     16  C   UNL     1      54.098 150.525  24.439  1.00  0.00     0.094 A 
ATOM     17  C   UNL     1      53.836 149.194  24.753  1.00  0.00     0.123 A 
BRANCH  11  18
ATOM     18  C   UNL     1      53.568 155.202  25.080  1.00  0.00     0.025 A 
ATOM     19  C   UNL     1      52.605 156.112  24.627  1.00  0.00     0.012 A 
ATOM     20  C   UNL     1      54.912 155.558  25.021  1.00  0.00     0.057 A 
ATOM     21  C   UNL     1      52.991 157.333  24.056  1.00  0.00    -0.004 A 
ATOM     22  C   UNL     1      55.256 156.775  24.438  1.00  0.00     0.108 A 
ATOM     23  C   UNL     1      54.336 157.699  23.896  1.00  0.00    -0.066 A 
ATOM     24  O   UNL     1      54.709 158.751  23.273  1.00  0.00    -0.870 OA
BRANCH  22  25
ATOM     25  O   UNL     1      56.588 157.103  24.322  1.00  0.00    -0.509 OA
ATOM     26  H   UNL     1      56.532 158.035  24.650  1.00  0.00     0.293 HD
ENDBRANCH  22  25
ENDBRANCH  11  18
BRANCH  12  27
ATOM     27  O   UNL     1      51.495 149.486  27.510  1.00  0.00    -0.507 OA
ATOM     28  H   UNL     1      51.781 149.927  28.340  1.00  0.00     0.293 HD
ENDBRANCH  12  27
BRANCH  17  29
ATOM     29  O   UNL     1      54.465 148.232  24.019  1.00  0.00    -0.508 OA
ATOM     30  H   UNL     1      55.403 148.469  23.931  1.00  0.00     0.293 HD
ENDBRANCH  17  29
ENDBRANCH   6   7
ENDBRANCH   1   6
BRANCH   5  31
ATOM     31  O   UNL     1      53.618 157.393  27.712  1.00  0.00    -0.384 OA
ATOM     32  H   UNL     1      53.451 157.579  26.763  1.00  0.00     0.211 HD
ENDBRANCH   5  31
BRANCH   3  33
ATOM     33  C   UNL     1      49.825 156.039  29.829  1.00  0.00     0.171 C 
BRANCH  33  34
ATOM     34  O   UNL     1      49.519 155.319  28.625  1.00  0.00    -0.388 OA
ATOM     35  H   UNL     1      50.387 155.259  28.169  1.00  0.00     0.211 HD
ENDBRANCH  33  34
BRANCH  33  36
ATOM     36  C   UNL     1      49.353 157.488  29.634  1.00  0.00     0.190 C 
BRANCH  36  37
ATOM     37  O   UNL     1      49.025 158.036  30.917  1.00  0.00    -0.394 OA
ATOM     38  H   UNL     1      49.125 157.282  31.552  1.00  0.00     0.210 HD
ENDBRANCH  36  37
ENDBRANCH  33  36
ENDBRANCH   3  33
BRANCH   4  39
ATOM     39  O   UNL     1      51.664 158.442  29.824  1.00  0.00    -0.387 OA
ATOM     40  H   UNL     1      52.321 158.946  30.337  1.00  0.00     0.211 HD
ENDBRANCH   4  39
TORSDOF 12
ENDMDL
MODEL 4
REMARK VINA RESULT:    -0.822      1.301      5.504
REMARK INTER + INTRA:          -1.436
REMARK INTER:                  -3.238
REMARK INTRA:                   1.802
REMARK UNBOUND:                -0.206
REMARK SMILES O=c1c(O[C@@H]2O[C@H]([C@H](O)CO)[C@H](O)[C@H]2O)c(-c2ccc([O-])c(O)c2)oc2cc(O)cc(O)c12
REMARK SMILES IDX 5 1 6 2 7 3 12 4 14 5 4 6 3 7 1 8 2 9 33 10 16 11 31 12
REMARK SMILES IDX 26 13 25 14 30 15 27 16 28 17 17 18 18 19 24 20 19 21 22 22
REMARK SMILES IDX 20 23 21 24 23 25 32 27 29 29 15 31 8 33 9 34 10 36 11 37
REMARK SMILES IDX 13 39
REMARK H PARENT 23 26 32 28 29 30 15 32 9 35 11 38 13 40
ROOT
ATOM      1  C   UNL     1      49.091 159.706  30.062  1.00  0.00     0.339 C 
ATOM      2  O   UNL     1      48.849 161.087  30.393  1.00  0.00    -0.332 OA
ATOM      3  C   UNL     1      47.577 161.172  31.073  1.00  0.00     0.185 C 
ATOM      4  C   UNL     1      46.770 160.029  30.453  1.00  0.00     0.181 C 
ATOM      5  C   UNL     1      47.806 158.925  30.357  1.00  0.00     0.214 C 
ENDROOT
BRANCH   1   6
ATOM      6  O   UNL     1      50.115 159.160  30.895  1.00  0.00    -0.454 OA
BRANCH   6   7
ATOM      7  C   UNL     1      51.368 159.697  30.675  1.00  0.00     0.214 A 
ATOM      8  O   UNL     1      50.879 161.719  31.838  1.00  0.00    -0.285 OA
ATOM      9  C   UNL     1      51.690 161.049  31.198  1.00  0.00     0.239 A 
ATOM     10  C   UNL     1      53.036 161.569  30.915  1.00  0.00     0.111 A 
ATOM     11  C   UNL     1      52.291 159.080  29.915  1.00  0.00     0.180 A 
ATOM     12  C   UNL     1      53.458 162.817  31.390  1.00  0.00     0.134 A 
ATOM     13  C   UNL     1      53.904 160.790  30.152  1.00  0.00     0.146 A 
ATOM     14  O   UNL     1      53.557 159.562  29.645  1.00  0.00    -0.452 OA
ATOM     15  C   UNL     1      54.741 163.280  31.110  1.00  0.00     0.093 A 
ATOM     16  C   UNL     1      55.190 161.249  29.867  1.00  0.00     0.094 A 
ATOM     17  C   UNL     1      55.598 162.490  30.349  1.00  0.00     0.123 A 
BRANCH  11  18
ATOM     18  C   UNL     1      52.003 157.769  29.317  1.00  0.00     0.025 A 
ATOM     19  C   UNL     1      51.046 156.924  29.892  1.00  0.00     0.012 A 
ATOM     20  C   UNL     1      52.743 157.309  28.231  1.00  0.00     0.057 A 
ATOM     21  C   UNL     1      50.886 155.610  29.430  1.00  0.00    -0.004 A 
ATOM     22  C   UNL     1      52.562 155.996  27.807  1.00  0.00     0.108 A 
ATOM     23  C   UNL     1      51.667 155.074  28.395  1.00  0.00    -0.066 A 
ATOM     24  O   UNL     1      51.619 153.846  28.041  1.00  0.00    -0.870 OA
BRANCH  22  25
ATOM     25  O   UNL     1      53.336 155.518  26.774  1.00  0.00    -0.509 OA
ATOM     26  H   UNL     1      54.223 155.650  27.191  1.00  0.00     0.293 HD
ENDBRANCH  22  25
ENDBRANCH  11  18
BRANCH  12  27
ATOM     27  O   UNL     1      52.660 163.639  32.141  1.00  0.00    -0.507 OA
ATOM     28  H   UNL     1      52.727 163.358  33.080  1.00  0.00     0.293 HD
ENDBRANCH  12  27
BRANCH  17  29
ATOM     29  O   UNL     1      56.862 162.904  30.049  1.00  0.00    -0.508 OA
ATOM     30  H   UNL     1      57.321 162.190  29.575  1.00  0.00     0.293 HD
ENDBRANCH  17  29
ENDBRANCH   6   7
ENDBRANCH   1   6
BRANCH   5  31
ATOM     31  O   UNL     1      47.468 157.981  29.334  1.00  0.00    -0.384 OA
ATOM     32  H   UNL     1      46.549 157.694  29.522  1.00  0.00     0.211 HD
ENDBRANCH   5  31
BRANCH   3  33
ATOM     33  C   UNL     1      47.780 161.133  32.601  1.00  0.00     0.171 C 
BRANCH  33  34
ATOM     34  O   UNL     1      48.560 162.251  33.050  1.00  0.00    -0.388 OA
ATOM     35  H   UNL     1      48.339 162.314  34.005  1.00  0.00     0.211 HD
ENDBRANCH  33  34
BRANCH  33  36
ATOM     36  C   UNL     1      48.506 159.853  33.043  1.00  0.00     0.190 C 
BRANCH  36  37
ATOM     37  O   UNL     1      49.640 160.223  33.837  1.00  0.00    -0.394 OA
ATOM     38  H   UNL     1      49.891 159.399  34.327  1.00  0.00     0.210 HD
ENDBRANCH  36  37
ENDBRANCH  33  36
ENDBRANCH   3  33
BRANCH   4  39
ATOM     39  O   UNL     1      45.610 159.606  31.147  1.00  0.00    -0.387 OA
ATOM     40  H   UNL     1      45.237 158.870  30.630  1.00  0.00     0.211 HD
ENDBRANCH   4  39
TORSDOF 12
ENDMDL
MODEL 5
REMARK VINA RESULT:    -0.504      1.542      6.801
REMARK INTER + INTRA:          -0.961
REMARK INTER:                  -3.730
REMARK INTRA:                   2.769
REMARK UNBOUND:                -0.206
REMARK SMILES O=c1c(O[C@@H]2O[C@H]([C@H](O)CO)[C@H](O)[C@H]2O)c(-c2ccc([O-])c(O)c2)oc2cc(O)cc(O)c12
REMARK SMILES IDX 5 1 6 2 7 3 12 4 14 5 4 6 3 7 1 8 2 9 33 10 16 11 31 12
REMARK SMILES IDX 26 13 25 14 30 15 27 16 28 17 17 18 18 19 24 20 19 21 22 22
REMARK SMILES IDX 20 23 21 24 23 25 32 27 29 29 15 31 8 33 9 34 10 36 11 37
REMARK SMILES IDX 13 39
REMARK H PARENT 23 26 32 28 29 30 15 32 9 35 11 38 13 40
ROOT
ATOM      1  C   UNL     1      53.965 160.731  29.742  1.00  0.00     0.339 C 
ATOM      2  O   UNL     1      55.378 160.917  29.947  1.00  0.00    -0.332 OA
ATOM      3  C   UNL     1      55.558 161.996  30.891  1.00  0.00     0.185 C 
ATOM      4  C   UNL     1      54.354 162.902  30.624  1.00  0.00     0.181 C 
ATOM      5  C   UNL     1      53.238 161.895  30.424  1.00  0.00     0.214 C 
ENDROOT
BRANCH   1   6
ATOM      6  O   UNL     1      53.518 159.529  30.371  1.00  0.00    -0.454 OA
BRANCH   6   7
ATOM      7  C   UNL     1      52.148 159.441  30.511  1.00  0.00     0.214 A 
ATOM      8  O   UNL     1      52.031 161.248  32.060  1.00  0.00    -0.285 OA
ATOM      9  C   UNL     1      51.440 160.377  31.422  1.00  0.00     0.239 A 
ATOM     10  C   UNL     1      49.983 160.219  31.538  1.00  0.00     0.111 A 
ATOM     11  C   UNL     1      51.426 158.469  29.923  1.00  0.00     0.180 A 
ATOM     12  C   UNL     1      49.212 161.069  32.340  1.00  0.00     0.134 A 
ATOM     13  C   UNL     1      49.366 159.191  30.825  1.00  0.00     0.146 A 
ATOM     14  O   UNL     1      50.057 158.315  30.028  1.00  0.00    -0.452 OA
ATOM     15  C   UNL     1      47.833 160.897  32.425  1.00  0.00     0.093 A 
ATOM     16  C   UNL     1      47.985 159.014  30.908  1.00  0.00     0.094 A 
ATOM     17  C   UNL     1      47.230 159.869  31.707  1.00  0.00     0.123 A 
BRANCH  11  18
ATOM     18  C   UNL     1      52.083 157.475  29.063  1.00  0.00     0.025 A 
ATOM     19  C   UNL     1      52.598 157.849  27.815  1.00  0.00     0.012 A 
ATOM     20  C   UNL     1      52.116 156.133  29.431  1.00  0.00     0.057 A 
ATOM     21  C   UNL     1      53.073 156.879  26.921  1.00  0.00    -0.004 A 
ATOM     22  C   UNL     1      52.587 155.199  28.512  1.00  0.00     0.108 A 
ATOM     23  C   UNL     1      53.048 155.507  27.212  1.00  0.00    -0.066 A 
ATOM     24  O   UNL     1      53.366 154.603  26.366  1.00  0.00    -0.870 OA
BRANCH  22  25
ATOM     25  O   UNL     1      52.564 153.865  28.848  1.00  0.00    -0.509 OA
ATOM     26  H   UNL     1      53.406 153.837  29.368  1.00  0.00     0.293 HD
ENDBRANCH  22  25
ENDBRANCH  11  18
BRANCH  12  27
ATOM     27  O   UNL     1      49.749 162.095  33.072  1.00  0.00    -0.507 OA
ATOM     28  H   UNL     1      50.024 162.803  32.449  1.00  0.00     0.293 HD
ENDBRANCH  12  27
BRANCH  17  29
ATOM     29  O   UNL     1      45.883 159.663  31.762  1.00  0.00    -0.508 OA
ATOM     30  H   UNL     1      45.431 160.511  31.624  1.00  0.00     0.293 HD
ENDBRANCH  17  29
ENDBRANCH   6   7
ENDBRANCH   1   6
BRANCH   5  31
ATOM     31  O   UNL     1      52.177 162.442  29.632  1.00  0.00    -0.384 OA
ATOM     32  H   UNL     1      52.338 162.137  28.713  1.00  0.00     0.211 HD
ENDBRANCH   5  31
BRANCH   3  33
ATOM     33  C   UNL     1      55.708 161.440  32.322  1.00  0.00     0.171 C 
BRANCH  33  34
ATOM     34  O   UNL     1      54.431 161.305  32.963  1.00  0.00    -0.388 OA
ATOM     35  H   UNL     1      54.658 161.269  33.918  1.00  0.00     0.211 HD
ENDBRANCH  33  34
BRANCH  33  36
ATOM     36  C   UNL     1      56.573 162.359  33.199  1.00  0.00     0.190 C 
BRANCH  36  37
ATOM     37  O   UNL     1      57.894 161.809  33.271  1.00  0.00    -0.394 OA
ATOM     38  H   UNL     1      58.384 162.399  33.897  1.00  0.00     0.210 HD
ENDBRANCH  36  37
ENDBRANCH  33  36
ENDBRANCH   3  33
BRANCH   4  39
ATOM     39  O   UNL     1      54.031 163.858  31.617  1.00  0.00    -0.387 OA
ATOM     40  H   UNL     1      53.059 163.876  31.672  1.00  0.00     0.211 HD
ENDBRANCH   4  39
TORSDOF 12
ENDMDL
MODEL 6
REMARK VINA RESULT:    -0.313      1.448      5.017
REMARK INTER + INTRA:          -0.674
REMARK INTER:                  -0.958
REMARK INTRA:                   0.284
REMARK UNBOUND:                -0.206
REMARK SMILES O=c1c(O[C@@H]2O[C@H]([C@H](O)CO)[C@H](O)[C@H]2O)c(-c2ccc([O-])c(O)c2)oc2cc(O)cc(O)c12
REMARK SMILES IDX 5 1 6 2 7 3 12 4 14 5 4 6 3 7 1 8 2 9 33 10 16 11 31 12
REMARK SMILES IDX 26 13 25 14 30 15 27 16 28 17 17 18 18 19 24 20 19 21 22 22
REMARK SMILES IDX 20 23 21 24 23 25 32 27 29 29 15 31 8 33 9 34 10 36 11 37
REMARK SMILES IDX 13 39
REMARK H PARENT 23 26 32 28 29 30 15 32 9 35 11 38 13 40
ROOT
ATOM      1  C   UNL     1      53.460 159.872  30.551  1.00  0.00     0.339 C 
ATOM      2  O   UNL     1      53.050 160.839  31.536  1.00  0.00    -0.332 OA
ATOM      3  C   UNL     1      53.826 162.041  31.338  1.00  0.00     0.185 C 
ATOM      4  C   UNL     1      55.157 161.515  30.795  1.00  0.00     0.181 C 
ATOM      5  C   UNL     1      54.703 160.423  29.845  1.00  0.00     0.214 C 
ENDROOT
BRANCH   1   6
ATOM      6  O   UNL     1      52.449 159.708  29.555  1.00  0.00    -0.454 OA
BRANCH   6   7
ATOM      7  C   UNL     1      52.089 158.395  29.326  1.00  0.00     0.214 A 
ATOM      8  O   UNL     1      53.847 158.020  27.761  1.00  0.00    -0.285 OA
ATOM      9  C   UNL     1      52.870 157.575  28.365  1.00  0.00     0.239 A 
ATOM     10  C   UNL     1      52.425 156.190  28.156  1.00  0.00     0.111 A 
ATOM     11  C   UNL     1      50.988 157.846  29.872  1.00  0.00     0.180 A 
ATOM     12  C   UNL     1      53.108 155.318  27.299  1.00  0.00     0.134 A 
ATOM     13  C   UNL     1      51.290 155.746  28.833  1.00  0.00     0.146 A 
ATOM     14  O   UNL     1      50.564 156.545  29.680  1.00  0.00    -0.452 OA
ATOM     15  C   UNL     1      52.665 154.010  27.125  1.00  0.00     0.093 A 
ATOM     16  C   UNL     1      50.840 154.437  28.661  1.00  0.00     0.094 A 
ATOM     17  C   UNL     1      51.531 153.579  27.810  1.00  0.00     0.123 A 
BRANCH  11  18
ATOM     18  C   UNL     1      50.140 158.631  30.780  1.00  0.00     0.025 A 
ATOM     19  C   UNL     1      48.753 158.440  30.794  1.00  0.00     0.012 A 
ATOM     20  C   UNL     1      50.690 159.639  31.565  1.00  0.00     0.057 A 
ATOM     21  C   UNL     1      47.923 159.297  31.531  1.00  0.00    -0.004 A 
ATOM     22  C   UNL     1      49.833 160.475  32.276  1.00  0.00     0.108 A 
ATOM     23  C   UNL     1      48.423 160.379  32.270  1.00  0.00    -0.066 A 
ATOM     24  O   UNL     1      47.676 161.240  32.850  1.00  0.00    -0.870 OA
BRANCH  22  25
ATOM     25  O   UNL     1      50.369 161.512  33.005  1.00  0.00    -0.509 OA
ATOM     26  H   UNL     1      51.218 161.609  32.508  1.00  0.00     0.293 HD
ENDBRANCH  22  25
ENDBRANCH  11  18
BRANCH  12  27
ATOM     27  O   UNL     1      54.226 155.685  26.597  1.00  0.00    -0.507 OA
ATOM     28  H   UNL     1      53.971 155.805  25.656  1.00  0.00     0.293 HD
ENDBRANCH  12  27
BRANCH  17  29
ATOM     29  O   UNL     1      51.060 152.307  27.668  1.00  0.00    -0.508 OA
ATOM     30  H   UNL     1      50.581 152.060  28.476  1.00  0.00     0.293 HD
ENDBRANCH  17  29
ENDBRANCH   6   7
ENDBRANCH   1   6
BRANCH   5  31
ATOM     31  O   UNL     1      55.728 159.442  29.652  1.00  0.00    -0.384 OA
ATOM     32  H   UNL     1      55.352 158.773  29.040  1.00  0.00     0.211 HD
ENDBRANCH   5  31
BRANCH   3  33
ATOM     33  C   UNL     1      53.056 163.038  30.447  1.00  0.00     0.171 C 
BRANCH  33  34
ATOM     34  O   UNL     1      53.866 163.490  29.352  1.00  0.00    -0.388 OA
ATOM     35  H   UNL     1      54.560 162.798  29.282  1.00  0.00     0.211 HD
ENDBRANCH  33  34
BRANCH  33  36
ATOM     36  C   UNL     1      52.612 164.278  31.239  1.00  0.00     0.190 C 
BRANCH  36  37
ATOM     37  O   UNL     1      51.843 163.846  32.367  1.00  0.00    -0.394 OA
ATOM     38  H   UNL     1      51.393 163.015  32.069  1.00  0.00     0.210 HD
ENDBRANCH  36  37
ENDBRANCH  33  36
ENDBRANCH   3  33
BRANCH   4  39
ATOM     39  O   UNL     1      56.010 162.449  30.157  1.00  0.00    -0.387 OA
ATOM     40  H   UNL     1      56.095 162.153  29.234  1.00  0.00     0.211 HD
ENDBRANCH   4  39
TORSDOF 12
ENDMDL
MODEL 7
REMARK VINA RESULT:    -0.216      1.496      7.175
REMARK INTER + INTRA:          -0.529
REMARK INTER:                  -1.306
REMARK INTRA:                   0.777
REMARK UNBOUND:                -0.206
REMARK SMILES O=c1c(O[C@@H]2O[C@H]([C@H](O)CO)[C@H](O)[C@H]2O)c(-c2ccc([O-])c(O)c2)oc2cc(O)cc(O)c12
REMARK SMILES IDX 5 1 6 2 7 3 12 4 14 5 4 6 3 7 1 8 2 9 33 10 16 11 31 12
REMARK SMILES IDX 26 13 25 14 30 15 27 16 28 17 17 18 18 19 24 20 19 21 22 22
REMARK SMILES IDX 20 23 21 24 23 25 32 27 29 29 15 31 8 33 9 34 10 36 11 37
REMARK SMILES IDX 13 39
REMARK H PARENT 23 26 32 28 29 30 15 32 9 35 11 38 13 40
ROOT
ATOM      1  C   UNL     1      51.813 156.688  29.608  1.00  0.00     0.339 C 
ATOM      2  O   UNL     1      53.038 156.318  28.947  1.00  0.00    -0.332 OA
ATOM      3  C   UNL     1      52.736 155.280  27.987  1.00  0.00     0.185 C 
ATOM      4  C   UNL     1      51.562 154.539  28.628  1.00  0.00     0.181 C 
ATOM      5  C   UNL     1      50.737 155.679  29.193  1.00  0.00     0.214 C 
ENDROOT
BRANCH   1   6
ATOM      6  O   UNL     1      51.373 157.975  29.171  1.00  0.00    -0.454 OA
BRANCH   6   7
ATOM      7  C   UNL     1      52.012 159.030  29.791  1.00  0.00     0.214 A 
ATOM      8  O   UNL     1      54.158 158.438  28.941  1.00  0.00    -0.285 OA
ATOM      9  C   UNL     1      53.478 159.202  29.626  1.00  0.00     0.239 A 
ATOM     10  C   UNL     1      54.098 160.336  30.326  1.00  0.00     0.111 A 
ATOM     11  C   UNL     1      51.370 159.867  30.628  1.00  0.00     0.180 A 
ATOM     12  C   UNL     1      55.466 160.613  30.212  1.00  0.00     0.134 A 
ATOM     13  C   UNL     1      53.292 161.149  31.122  1.00  0.00     0.146 A 
ATOM     14  O   UNL     1      51.946 160.934  31.288  1.00  0.00    -0.452 OA
ATOM     15  C   UNL     1      56.023 161.698  30.884  1.00  0.00     0.093 A 
ATOM     16  C   UNL     1      53.845 162.237  31.797  1.00  0.00     0.094 A 
ATOM     17  C   UNL     1      55.206 162.503  31.672  1.00  0.00     0.123 A 
BRANCH  11  18
ATOM     18  C   UNL     1      49.932 159.704  30.880  1.00  0.00     0.025 A 
ATOM     19  C   UNL     1      49.121 159.038  29.952  1.00  0.00     0.012 A 
ATOM     20  C   UNL     1      49.339 160.292  31.993  1.00  0.00     0.057 A 
ATOM     21  C   UNL     1      47.727 159.026  30.103  1.00  0.00    -0.004 A 
ATOM     22  C   UNL     1      47.951 160.266  32.103  1.00  0.00     0.108 A 
ATOM     23  C   UNL     1      47.078 159.677  31.163  1.00  0.00    -0.066 A 
ATOM     24  O   UNL     1      45.806 159.777  31.252  1.00  0.00    -0.870 OA
BRANCH  22  25
ATOM     25  O   UNL     1      47.356 160.900  33.171  1.00  0.00    -0.509 OA
ATOM     26  H   UNL     1      47.968 161.676  33.231  1.00  0.00     0.293 HD
ENDBRANCH  22  25
ENDBRANCH  11  18
BRANCH  12  27
ATOM     27  O   UNL     1      56.320 159.856  29.454  1.00  0.00    -0.507 OA
ATOM     28  H   UNL     1      57.106 160.405  29.239  1.00  0.00     0.293 HD
ENDBRANCH  12  27
BRANCH  17  29
ATOM     29  O   UNL     1      55.709 163.575  32.349  1.00  0.00    -0.508 OA
ATOM     30  H   UNL     1      55.038 164.277  32.366  1.00  0.00     0.293 HD
ENDBRANCH  17  29
ENDBRANCH   6   7
ENDBRANCH   1   6
BRANCH   5  31
ATOM     31  O   UNL     1      49.920 155.240  30.285  1.00  0.00    -0.384 OA
ATOM     32  H   UNL     1      49.023 155.097  29.913  1.00  0.00     0.211 HD
ENDBRANCH   5  31
BRANCH   3  33
ATOM     33  C   UNL     1      52.496 155.892  26.591  1.00  0.00     0.171 C 
BRANCH  33  34
ATOM     34  O   UNL     1      51.960 154.919  25.682  1.00  0.00    -0.388 OA
ATOM     35  H   UNL     1      51.029 155.208  25.563  1.00  0.00     0.211 HD
ENDBRANCH  33  34
BRANCH  33  36
ATOM     36  C   UNL     1      53.798 156.432  25.978  1.00  0.00     0.190 C 
BRANCH  36  37
ATOM     37  O   UNL     1      54.462 155.358  25.301  1.00  0.00    -0.394 OA
ATOM     38  H   UNL     1      54.496 155.636  24.350  1.00  0.00     0.210 HD
ENDBRANCH  36  37
ENDBRANCH  33  36
ENDBRANCH   3  33
BRANCH   4  39
ATOM     39  O   UNL     1      50.793 153.696  27.788  1.00  0.00    -0.387 OA
ATOM     40  H   UNL     1      49.955 154.164  27.626  1.00  0.00     0.211 HD
ENDBRANCH   4  39
TORSDOF 12
ENDMDL
MODEL 8
REMARK VINA RESULT:    -0.157      1.459      4.796
REMARK INTER + INTRA:          -0.440
REMARK INTER:                  -0.695
REMARK INTRA:                   0.254
REMARK UNBOUND:                -0.206
REMARK SMILES O=c1c(O[C@@H]2O[C@H]([C@H](O)CO)[C@H](O)[C@H]2O)c(-c2ccc([O-])c(O)c2)oc2cc(O)cc(O)c12
REMARK SMILES IDX 5 1 6 2 7 3 12 4 14 5 4 6 3 7 1 8 2 9 33 10 16 11 31 12
REMARK SMILES IDX 26 13 25 14 30 15 27 16 28 17 17 18 18 19 24 20 19 21 22 22
REMARK SMILES IDX 20 23 21 24 23 25 32 27 29 29 15 31 8 33 9 34 10 36 11 37
REMARK SMILES IDX 13 39
REMARK H PARENT 23 26 32 28 29 30 15 32 9 35 11 38 13 40
ROOT
ATOM      1  C   UNL     1      52.323 160.090  30.584  1.00  0.00     0.339 C 
ATOM      2  O   UNL     1      51.649 159.871  31.837  1.00  0.00    -0.332 OA
ATOM      3  C   UNL     1      51.263 161.157  32.373  1.00  0.00     0.185 C 
ATOM      4  C   UNL     1      52.357 162.094  31.857  1.00  0.00     0.181 C 
ATOM      5  C   UNL     1      52.559 161.597  30.439  1.00  0.00     0.214 C 
ENDROOT
BRANCH   1   6
ATOM      6  O   UNL     1      51.496 159.687  29.490  1.00  0.00    -0.454 OA
BRANCH   6   7
ATOM      7  C   UNL     1      51.364 158.319  29.356  1.00  0.00     0.214 A 
ATOM      8  O   UNL     1      53.293 158.109  27.973  1.00  0.00    -0.285 OA
ATOM      9  C   UNL     1      52.345 157.562  28.538  1.00  0.00     0.239 A 
ATOM     10  C   UNL     1      52.138 156.111  28.423  1.00  0.00     0.111 A 
ATOM     11  C   UNL     1      50.315 157.645  29.864  1.00  0.00     0.180 A 
ATOM     12  C   UNL     1      53.022 155.296  27.706  1.00  0.00     0.134 A 
ATOM     13  C   UNL     1      51.028 155.546  29.049  1.00  0.00     0.146 A 
ATOM     14  O   UNL     1      50.114 156.283  29.760  1.00  0.00    -0.452 OA
ATOM     15  C   UNL     1      52.801 153.924  27.619  1.00  0.00     0.093 A 
ATOM     16  C   UNL     1      50.801 154.172  28.965  1.00  0.00     0.094 A 
ATOM     17  C   UNL     1      51.690 153.372  28.251  1.00  0.00     0.123 A 
BRANCH  11  18
ATOM     18  C   UNL     1      49.278 158.353  30.628  1.00  0.00     0.025 A 
ATOM     19  C   UNL     1      49.239 158.257  32.024  1.00  0.00     0.012 A 
ATOM     20  C   UNL     1      48.266 159.047  29.971  1.00  0.00     0.057 A 
ATOM     21  C   UNL     1      48.160 158.789  32.745  1.00  0.00    -0.004 A 
ATOM     22  C   UNL     1      47.208 159.553  30.720  1.00  0.00     0.108 A 
ATOM     23  C   UNL     1      47.075 159.422  32.120  1.00  0.00    -0.066 A 
ATOM     24  O   UNL     1      46.029 159.806  32.748  1.00  0.00    -0.870 OA
BRANCH  22  25
ATOM     25  O   UNL     1      46.174 160.186  30.068  1.00  0.00    -0.509 OA
ATOM     26  H   UNL     1      46.521 160.105  29.145  1.00  0.00     0.293 HD
ENDBRANCH  22  25
ENDBRANCH  11  18
BRANCH  12  27
ATOM     27  O   UNL     1      54.129 155.781  27.061  1.00  0.00    -0.507 OA
ATOM     28  H   UNL     1      53.892 156.641  26.650  1.00  0.00     0.293 HD
ENDBRANCH  12  27
BRANCH  17  29
ATOM     29  O   UNL     1      51.434 152.034  28.192  1.00  0.00    -0.508 OA
ATOM     30  H   UNL     1      52.199 151.587  27.795  1.00  0.00     0.293 HD
ENDBRANCH  17  29
ENDBRANCH   6   7
ENDBRANCH   1   6
BRANCH   5  31
ATOM     31  O   UNL     1      53.867 161.922  29.954  1.00  0.00    -0.384 OA
ATOM     32  H   UNL     1      54.427 161.136  30.135  1.00  0.00     0.211 HD
ENDBRANCH   5  31
BRANCH   3  33
ATOM     33  C   UNL     1      49.811 161.492  31.972  1.00  0.00     0.171 C 
BRANCH  33  34
ATOM     34  O   UNL     1      49.756 162.077  30.663  1.00  0.00    -0.388 OA
ATOM     35  H   UNL     1      50.701 162.218  30.437  1.00  0.00     0.211 HD
ENDBRANCH  33  34
BRANCH  33  36
ATOM     36  C   UNL     1      49.169 162.485  32.953  1.00  0.00     0.190 C 
BRANCH  36  37
ATOM     37  O   UNL     1      48.795 161.776  34.139  1.00  0.00    -0.394 OA
ATOM     38  H   UNL     1      48.206 161.043  33.826  1.00  0.00     0.210 HD
ENDBRANCH  36  37
ENDBRANCH  33  36
ENDBRANCH   3  33
BRANCH   4  39
ATOM     39  O   UNL     1      52.087 163.484  31.896  1.00  0.00    -0.387 OA
ATOM     40  H   UNL     1      52.148 163.799  30.976  1.00  0.00     0.211 HD
ENDBRANCH   4  39
TORSDOF 12
ENDMDL
MODEL 9
REMARK VINA RESULT:    -0.042      1.630      7.229
REMARK INTER + INTRA:          -0.269
REMARK INTER:                  -0.765
REMARK INTRA:                   0.497
REMARK UNBOUND:                -0.206
REMARK SMILES O=c1c(O[C@@H]2O[C@H]([C@H](O)CO)[C@H](O)[C@H]2O)c(-c2ccc([O-])c(O)c2)oc2cc(O)cc(O)c12
REMARK SMILES IDX 5 1 6 2 7 3 12 4 14 5 4 6 3 7 1 8 2 9 33 10 16 11 31 12
REMARK SMILES IDX 26 13 25 14 30 15 27 16 28 17 17 18 18 19 24 20 19 21 22 22
REMARK SMILES IDX 20 23 21 24 23 25 32 27 29 29 15 31 8 33 9 34 10 36 11 37
REMARK SMILES IDX 13 39
REMARK H PARENT 23 26 32 28 29 30 15 32 9 35 11 38 13 40
ROOT
ATOM      1  C   UNL     1      53.237 161.497  31.110  1.00  0.00     0.339 C 
ATOM      2  O   UNL     1      53.617 162.510  30.160  1.00  0.00    -0.332 OA
ATOM      3  C   UNL     1      55.059 162.616  30.165  1.00  0.00     0.185 C 
ATOM      4  C   UNL     1      55.432 162.260  31.605  1.00  0.00     0.181 C 
ATOM      5  C   UNL     1      54.491 161.108  31.902  1.00  0.00     0.214 C 
ENDROOT
BRANCH   1   6
ATOM      6  O   UNL     1      52.782 160.321  30.439  1.00  0.00    -0.454 OA
BRANCH   6   7
ATOM      7  C   UNL     1      51.460 160.008  30.683  1.00  0.00     0.214 A 
ATOM      8  O   UNL     1      51.084 161.944  32.021  1.00  0.00    -0.285 OA
ATOM      9  C   UNL     1      50.635 160.909  31.528  1.00  0.00     0.239 A 
ATOM     10  C   UNL     1      49.240 160.509  31.762  1.00  0.00     0.111 A 
ATOM     11  C   UNL     1      50.904 158.858  30.260  1.00  0.00     0.180 A 
ATOM     12  C   UNL     1      48.364 161.300  32.514  1.00  0.00     0.134 A 
ATOM     13  C   UNL     1      48.791 159.307  31.215  1.00  0.00     0.146 A 
ATOM     14  O   UNL     1      49.594 158.476  30.476  1.00  0.00    -0.452 OA
ATOM     15  C   UNL     1      47.045 160.897  32.714  1.00  0.00     0.093 A 
ATOM     16  C   UNL     1      47.472 158.898  31.413  1.00  0.00     0.094 A 
ATOM     17  C   UNL     1      46.610 159.697  32.160  1.00  0.00     0.123 A 
BRANCH  11  18
ATOM     18  C   UNL     1      51.692 157.898  29.474  1.00  0.00     0.025 A 
ATOM     19  C   UNL     1      52.434 158.330  28.368  1.00  0.00     0.012 A 
ATOM     20  C   UNL     1      51.636 156.537  29.758  1.00  0.00     0.057 A 
ATOM     21  C   UNL     1      53.051 157.402  27.517  1.00  0.00    -0.004 A 
ATOM     22  C   UNL     1      52.253 155.646  28.884  1.00  0.00     0.108 A 
ATOM     23  C   UNL     1      52.951 156.016  27.713  1.00  0.00    -0.066 A 
ATOM     24  O   UNL     1      53.404 155.154  26.885  1.00  0.00    -0.870 OA
BRANCH  22  25
ATOM     25  O   UNL     1      52.147 154.295  29.128  1.00  0.00    -0.509 OA
ATOM     26  H   UNL     1      53.109 154.069  29.087  1.00  0.00     0.293 HD
ENDBRANCH  22  25
ENDBRANCH  11  18
BRANCH  12  27
ATOM     27  O   UNL     1      48.734 162.489  33.086  1.00  0.00    -0.507 OA
ATOM     28  H   UNL     1      49.430 162.303  33.754  1.00  0.00     0.293 HD
ENDBRANCH  12  27
BRANCH  17  29
ATOM     29  O   UNL     1      45.329 159.262  32.331  1.00  0.00    -0.508 OA
ATOM     30  H   UNL     1      44.724 160.011  32.199  1.00  0.00     0.293 HD
ENDBRANCH  17  29
ENDBRANCH   6   7
ENDBRANCH   1   6
BRANCH   5  31
ATOM     31  O   UNL     1      54.255 160.977  33.308  1.00  0.00    -0.384 OA
ATOM     32  H   UNL     1      54.226 161.891  33.665  1.00  0.00     0.211 HD
ENDBRANCH   5  31
BRANCH   3  33
ATOM     33  C   UNL     1      55.666 161.739  29.050  1.00  0.00     0.171 C 
BRANCH  33  34
ATOM     34  O   UNL     1      56.055 160.453  29.555  1.00  0.00    -0.388 OA
ATOM     35  H   UNL     1      56.941 160.310  29.155  1.00  0.00     0.211 HD
ENDBRANCH  33  34
BRANCH  33  36
ATOM     36  C   UNL     1      56.912 162.392  28.433  1.00  0.00     0.190 C 
BRANCH  36  37
ATOM     37  O   UNL     1      57.181 163.612  29.133  1.00  0.00    -0.394 OA
ATOM     38  H   UNL     1      56.429 164.214  28.900  1.00  0.00     0.210 HD
ENDBRANCH  36  37
ENDBRANCH  33  36
ENDBRANCH   3  33
BRANCH   4  39
ATOM     39  O   UNL     1      56.783 161.916  31.857  1.00  0.00    -0.387 OA
ATOM     40  H   UNL     1      57.142 161.590  31.013  1.00  0.00     0.211 HD
ENDBRANCH   4  39
TORSDOF 12
ENDMDL
