MODEL 1
REMARK VINA RESULT:    -7.328      0.000      0.000
REMARK INTER + INTRA:         -10.812
REMARK INTER:                 -10.541
REMARK INTRA:                  -0.271
REMARK UNBOUND:                -0.271
REMARK SMILES O=c1c(O)c(-c2ccc(O)cc2)oc2cc(O[C@@H]3O[C@H](CO)[C@@H](O)[C@H](O)[C@H]3O)cc(O)c12
REMARK SMILES IDX 17 1 16 2 1 3 2 4 3 5 32 6 5 7 30 8 14 9 13 10 29 11 15 12
REMARK SMILES IDX 4 13 6 15 7 16 12 17 8 18 11 19 9 20 10 21 31 23 18 25 19 26
REMARK SMILES IDX 27 27 20 28 25 29 23 30 28 31 21 33 22 34 26 36 24 38
REMARK H PARENT 4 14 10 22 31 24 28 32 22 35 26 37 24 39
ROOT
ATOM      1  O   UNL     1      51.307 156.927  30.006  1.00  0.00    -0.462 OA
ENDROOT
BRANCH   1   2
ATOM      2  C   UNL     1      51.980 156.447  28.917  1.00  0.00     0.130 A 
ATOM      3  O   UNL     1      54.859 156.016  24.696  1.00  0.00    -0.285 OA
ATOM      4  C   UNL     1      54.186 155.295  25.425  1.00  0.00     0.238 A 
ATOM      5  C   UNL     1      54.116 153.850  25.088  1.00  0.00     0.208 A 
ATOM      6  C   UNL     1      53.438 155.740  26.617  1.00  0.00     0.111 A 
ATOM      7  C   UNL     1      53.399 153.027  25.872  1.00  0.00     0.180 A 
ATOM      8  C   UNL     1      53.394 157.071  27.043  1.00  0.00     0.134 A 
ATOM      9  C   UNL     1      52.744 154.775  27.345  1.00  0.00     0.146 A 
ATOM     10  O   UNL     1      52.719 153.444  27.005  1.00  0.00    -0.452 OA
ATOM     11  C   UNL     1      52.666 157.420  28.185  1.00  0.00     0.093 A 
ATOM     12  C   UNL     1      52.015 155.123  28.488  1.00  0.00     0.094 A 
BRANCH   5  13
ATOM     13  O   UNL     1      54.826 153.441  23.972  1.00  0.00    -0.502 OA
ATOM     14  H   UNL     1      54.196 153.555  23.227  1.00  0.00     0.293 HD
ENDBRANCH   5  13
BRANCH   7  15
ATOM     15  C   UNL     1      53.275 151.574  25.627  1.00  0.00     0.021 A 
ATOM     16  C   UNL     1      52.285 150.802  26.253  1.00  0.00     0.016 A 
ATOM     17  C   UNL     1      54.193 150.928  24.781  1.00  0.00     0.016 A 
ATOM     18  C   UNL     1      52.205 149.425  26.028  1.00  0.00     0.047 A 
ATOM     19  C   UNL     1      54.114 149.551  24.554  1.00  0.00     0.047 A 
ATOM     20  C   UNL     1      53.118 148.811  25.180  1.00  0.00     0.115 A 
BRANCH  20  21
ATOM     21  O   UNL     1      53.004 147.466  24.988  1.00  0.00    -0.508 OA
ATOM     22  H   UNL     1      52.157 147.171  25.361  1.00  0.00     0.293 HD
ENDBRANCH  20  21
ENDBRANCH   7  15
BRANCH   8  23
ATOM     23  O   UNL     1      54.055 158.050  26.358  1.00  0.00    -0.507 OA
ATOM     24  H   UNL     1      53.573 158.276  25.547  1.00  0.00     0.293 HD
ENDBRANCH   8  23
ENDBRANCH   1   2
BRANCH   1  25
ATOM     25  C   UNL     1      50.566 158.150  29.856  1.00  0.00     0.339 C 
ATOM     26  O   UNL     1      51.194 159.178  30.631  1.00  0.00    -0.332 OA
ATOM     27  C   UNL     1      49.134 157.876  30.356  1.00  0.00     0.214 C 
ATOM     28  C   UNL     1      50.376 160.304  30.995  1.00  0.00     0.179 C 
ATOM     29  C   UNL     1      48.256 159.126  30.199  1.00  0.00     0.180 C 
ATOM     30  C   UNL     1      49.064 160.430  30.208  1.00  0.00     0.177 C 
BRANCH  27  31
ATOM     31  O   UNL     1      48.505 156.795  29.644  1.00  0.00    -0.384 OA
ATOM     32  H   UNL     1      48.996 156.702  28.808  1.00  0.00     0.211 HD
ENDBRANCH  27  31
BRANCH  28  33
ATOM     33  C   UNL     1      50.148 160.246  32.512  1.00  0.00     0.191 C 
BRANCH  33  34
ATOM     34  O   UNL     1      49.035 161.069  32.862  1.00  0.00    -0.394 OA
ATOM     35  H   UNL     1      48.892 160.934  33.821  1.00  0.00     0.210 HD
ENDBRANCH  33  34
ENDBRANCH  28  33
BRANCH  29  36
ATOM     36  O   UNL     1      47.282 159.126  31.251  1.00  0.00    -0.387 OA
ATOM     37  H   UNL     1      47.078 160.053  31.471  1.00  0.00     0.211 HD
ENDBRANCH  29  36
BRANCH  30  38
ATOM     38  O   UNL     1      49.394 160.775  28.853  1.00  0.00    -0.387 OA
ATOM     39  H   UNL     1      48.571 160.798  28.334  1.00  0.00     0.211 HD
ENDBRANCH  30  38
ENDBRANCH   1  25
TORSDOF 11
ENDMDL
MODEL 2
REMARK VINA RESULT:    -6.985      2.329      4.058
REMARK INTER + INTRA:         -10.318
REMARK INTER:                 -10.256
REMARK INTRA:                  -0.062
REMARK UNBOUND:                -0.271
REMARK SMILES O=c1c(O)c(-c2ccc(O)cc2)oc2cc(O[C@@H]3O[C@H](CO)[C@@H](O)[C@H](O)[C@H]3O)cc(O)c12
REMARK SMILES IDX 17 1 16 2 1 3 2 4 3 5 32 6 5 7 30 8 14 9 13 10 29 11 15 12
REMARK SMILES IDX 4 13 6 15 7 16 12 17 8 18 11 19 9 20 10 21 31 23 18 25 19 26
REMARK SMILES IDX 27 27 20 28 25 29 23 30 28 31 21 33 22 34 26 36 24 38
REMARK H PARENT 4 14 10 22 31 24 28 32 22 35 26 37 24 39
ROOT
ATOM      1  O   UNL     1      51.662 159.344  29.699  1.00  0.00    -0.462 OA
ENDROOT
BRANCH   1   2
ATOM      2  C   UNL     1      51.802 158.045  29.295  1.00  0.00     0.130 A 
ATOM      3  O   UNL     1      51.643 152.929  28.997  1.00  0.00    -0.285 OA
ATOM      4  C   UNL     1      52.082 153.872  28.347  1.00  0.00     0.238 A 
ATOM      5  C   UNL     1      52.789 153.564  27.078  1.00  0.00     0.208 A 
ATOM      6  C   UNL     1      51.965 155.297  28.718  1.00  0.00     0.111 A 
ATOM      7  C   UNL     1      53.271 154.573  26.333  1.00  0.00     0.180 A 
ATOM      8  C   UNL     1      51.346 155.736  29.892  1.00  0.00     0.134 A 
ATOM      9  C   UNL     1      52.504 156.241  27.845  1.00  0.00     0.146 A 
ATOM     10  O   UNL     1      53.137 155.911  26.671  1.00  0.00    -0.452 OA
ATOM     11  C   UNL     1      51.269 157.103  30.178  1.00  0.00     0.093 A 
ATOM     12  C   UNL     1      52.427 157.609  28.129  1.00  0.00     0.094 A 
BRANCH   5  13
ATOM     13  O   UNL     1      52.888 152.226  26.736  1.00  0.00    -0.502 OA
ATOM     14  H   UNL     1      51.957 151.934  26.625  1.00  0.00     0.293 HD
ENDBRANCH   5  13
BRANCH   7  15
ATOM     15  C   UNL     1      53.980 154.371  25.052  1.00  0.00     0.021 A 
ATOM     16  C   UNL     1      54.949 155.276  24.593  1.00  0.00     0.016 A 
ATOM     17  C   UNL     1      53.655 153.270  24.241  1.00  0.00     0.016 A 
ATOM     18  C   UNL     1      55.586 155.079  23.365  1.00  0.00     0.047 A 
ATOM     19  C   UNL     1      54.292 153.070  23.012  1.00  0.00     0.047 A 
ATOM     20  C   UNL     1      55.254 153.979  22.586  1.00  0.00     0.115 A 
BRANCH  20  21
ATOM     21  O   UNL     1      55.900 153.824  21.395  1.00  0.00    -0.508 OA
ATOM     22  H   UNL     1      56.018 152.874  21.228  1.00  0.00     0.293 HD
ENDBRANCH  20  21
ENDBRANCH   7  15
BRANCH   8  23
ATOM     23  O   UNL     1      50.809 154.847  30.778  1.00  0.00    -0.507 OA
ATOM     24  H   UNL     1      49.911 155.119  31.024  1.00  0.00     0.293 HD
ENDBRANCH   8  23
ENDBRANCH   1   2
BRANCH   1  25
ATOM     25  C   UNL     1      50.870 159.603  30.871  1.00  0.00     0.339 C 
ATOM     26  O   UNL     1      49.487 159.650  30.503  1.00  0.00    -0.332 OA
ATOM     27  C   UNL     1      51.337 160.956  31.443  1.00  0.00     0.214 C 
ATOM     28  C   UNL     1      48.602 160.349  31.397  1.00  0.00     0.179 C 
ATOM     29  C   UNL     1      50.564 161.298  32.725  1.00  0.00     0.180 C 
ATOM     30  C   UNL     1      49.184 160.632  32.788  1.00  0.00     0.177 C 
BRANCH  27  31
ATOM     31  O   UNL     1      52.742 160.962  31.752  1.00  0.00    -0.384 OA
ATOM     32  H   UNL     1      53.102 161.774  31.351  1.00  0.00     0.211 HD
ENDBRANCH  27  31
BRANCH  28  33
ATOM     33  C   UNL     1      48.132 161.626  30.685  1.00  0.00     0.191 C 
BRANCH  33  34
ATOM     34  O   UNL     1      48.002 162.684  31.635  1.00  0.00    -0.394 OA
ATOM     35  H   UNL     1      47.103 162.598  32.012  1.00  0.00     0.210 HD
ENDBRANCH  33  34
ENDBRANCH  28  33
BRANCH  29  36
ATOM     36  O   UNL     1      50.442 162.725  32.809  1.00  0.00    -0.387 OA
ATOM     37  H   UNL     1      51.334 163.107  32.726  1.00  0.00     0.211 HD
ENDBRANCH  29  36
BRANCH  30  38
ATOM     38  O   UNL     1      49.311 159.377  33.477  1.00  0.00    -0.387 OA
ATOM     39  H   UNL     1      49.685 158.725  32.858  1.00  0.00     0.211 HD
ENDBRANCH  30  38
ENDBRANCH   1  25
TORSDOF 11
ENDMDL
