MODEL 1
REMARK VINA RESULT:    -6.414      0.000      0.000
REMARK INTER + INTRA:         -10.741
REMARK INTER:                  -9.226
REMARK INTRA:                  -1.515
REMARK UNBOUND:                -1.515
REMARK SMILES O=c1c(O[C@@H]2O[C@H](CO)[C@@H](O)[C@H](O)[C@H]2O)c(-c2ccc(O)cc2)oc2cc(O)cc(O)c12
REMARK SMILES IDX 4 1 3 2 1 3 2 4 32 5 16 6 30 7 25 8 24 9 29 10 26 11 27 12
REMARK SMILES IDX 17 13 18 14 23 15 19 16 22 17 20 18 21 19 31 21 28 23 5 25
REMARK SMILES IDX 6 26 14 27 7 28 12 29 10 30 15 31 8 33 9 34 13 36 11 38
REMARK H PARENT 21 20 31 22 28 24 15 32 9 35 13 37 11 39
ROOT
ATOM      1  O   UNL     1      60.961 160.768  38.051  1.00  0.00    -0.454 OA
ENDROOT
BRANCH   1   2
ATOM      2  C   UNL     1      61.112 162.082  37.653  1.00  0.00     0.214 A 
ATOM      3  O   UNL     1      59.232 161.888  36.269  1.00  0.00    -0.285 OA
ATOM      4  C   UNL     1      60.147 162.611  36.653  1.00  0.00     0.239 A 
ATOM      5  C   UNL     1      60.356 164.004  36.198  1.00  0.00     0.111 A 
ATOM      6  C   UNL     1      62.105 162.879  38.088  1.00  0.00     0.180 A 
ATOM      7  C   UNL     1      59.540 164.631  35.247  1.00  0.00     0.134 A 
ATOM      8  C   UNL     1      61.419 164.718  36.758  1.00  0.00     0.146 A 
ATOM      9  O   UNL     1      62.272 164.195  37.695  1.00  0.00    -0.452 OA
ATOM     10  C   UNL     1      59.788 165.952  34.865  1.00  0.00     0.093 A 
ATOM     11  C   UNL     1      61.670 166.040  36.379  1.00  0.00     0.094 A 
ATOM     12  C   UNL     1      60.851 166.644  35.434  1.00  0.00     0.123 A 
BRANCH   6  13
ATOM     13  C   UNL     1      63.098 162.441  39.089  1.00  0.00     0.021 A 
ATOM     14  C   UNL     1      63.116 162.971  40.389  1.00  0.00     0.016 A 
ATOM     15  C   UNL     1      64.046 161.463  38.748  1.00  0.00     0.016 A 
ATOM     16  C   UNL     1      64.070 162.550  41.321  1.00  0.00     0.047 A 
ATOM     17  C   UNL     1      64.996 161.039  39.678  1.00  0.00     0.047 A 
ATOM     18  C   UNL     1      65.002 161.587  40.955  1.00  0.00     0.115 A 
BRANCH  18  19
ATOM     19  O   UNL     1      65.951 161.147  41.830  1.00  0.00    -0.508 OA
ATOM     20  H   UNL     1      66.376 160.358  41.456  1.00  0.00     0.293 HD
ENDBRANCH  18  19
ENDBRANCH   6  13
BRANCH   7  21
ATOM     21  O   UNL     1      58.492 163.968  34.676  1.00  0.00    -0.507 OA
ATOM     22  H   UNL     1      58.675 163.014  34.646  1.00  0.00     0.293 HD
ENDBRANCH   7  21
BRANCH  12  23
ATOM     23  O   UNL     1      61.056 167.930  35.032  1.00  0.00    -0.508 OA
ATOM     24  H   UNL     1      61.782 168.317  35.549  1.00  0.00     0.293 HD
ENDBRANCH  12  23
ENDBRANCH   1   2
BRANCH   1  25
ATOM     25  C   UNL     1      60.103 160.656  39.202  1.00  0.00     0.339 C 
ATOM     26  O   UNL     1      60.926 160.350  40.324  1.00  0.00    -0.332 OA
ATOM     27  C   UNL     1      59.121 159.490  38.935  1.00  0.00     0.214 C 
ATOM     28  C   UNL     1      60.200 160.324  41.570  1.00  0.00     0.179 C 
ATOM     29  C   UNL     1      58.543 158.912  40.243  1.00  0.00     0.180 C 
ATOM     30  C   UNL     1      58.731 159.872  41.426  1.00  0.00     0.177 C 
BRANCH  27  31
ATOM     31  O   UNL     1      58.022 159.897  38.101  1.00  0.00    -0.384 OA
ATOM     32  H   UNL     1      57.357 160.355  38.668  1.00  0.00     0.211 HD
ENDBRANCH  27  31
BRANCH  28  33
ATOM     33  C   UNL     1      61.001 159.405  42.500  1.00  0.00     0.191 C 
BRANCH  33  34
ATOM     34  O   UNL     1      61.678 158.411  41.724  1.00  0.00    -0.394 OA
ATOM     35  H   UNL     1      62.466 158.858  41.355  1.00  0.00     0.210 HD
ENDBRANCH  33  34
ENDBRANCH  28  33
BRANCH  29  36
ATOM     36  O   UNL     1      59.137 157.648  40.557  1.00  0.00    -0.387 OA
ATOM     37  H   UNL     1      58.436 157.092  40.944  1.00  0.00     0.211 HD
ENDBRANCH  29  36
BRANCH  30  38
ATOM     38  O   UNL     1      57.926 161.045  41.219  1.00  0.00    -0.387 OA
ATOM     39  H   UNL     1      57.987 161.290  40.278  1.00  0.00     0.211 HD
ENDBRANCH  30  38
ENDBRANCH   1  25
TORSDOF 11
ENDMDL
MODEL 2
REMARK VINA RESULT:    -6.006      1.782      7.217
REMARK INTER + INTRA:         -10.155
REMARK INTER:                  -8.807
REMARK INTRA:                  -1.347
REMARK UNBOUND:                -1.515
REMARK SMILES O=c1c(O[C@@H]2O[C@H](CO)[C@@H](O)[C@H](O)[C@H]2O)c(-c2ccc(O)cc2)oc2cc(O)cc(O)c12
REMARK SMILES IDX 4 1 3 2 1 3 2 4 32 5 16 6 30 7 25 8 24 9 29 10 26 11 27 12
REMARK SMILES IDX 17 13 18 14 23 15 19 16 22 17 20 18 21 19 31 21 28 23 5 25
REMARK SMILES IDX 6 26 14 27 7 28 12 29 10 30 15 31 8 33 9 34 13 36 11 38
REMARK H PARENT 21 20 31 22 28 24 15 32 9 35 13 37 11 39
ROOT
ATOM      1  O   UNL     1      61.932 161.209  37.991  1.00  0.00    -0.454 OA
ENDROOT
BRANCH   1   2
ATOM      2  C   UNL     1      60.758 161.024  38.697  1.00  0.00     0.214 A 
ATOM      3  O   UNL     1      61.839 159.501  40.111  1.00  0.00    -0.285 OA
ATOM      4  C   UNL     1      60.780 160.051  39.822  1.00  0.00     0.239 A 
ATOM      5  C   UNL     1      59.502 159.826  40.533  1.00  0.00     0.111 A 
ATOM      6  C   UNL     1      59.603 161.641  38.390  1.00  0.00     0.180 A 
ATOM      7  C   UNL     1      59.364 158.927  41.599  1.00  0.00     0.134 A 
ATOM      8  C   UNL     1      58.388 160.558  40.114  1.00  0.00     0.146 A 
ATOM      9  O   UNL     1      58.419 161.462  39.084  1.00  0.00    -0.452 OA
ATOM     10  C   UNL     1      58.130 158.765  42.231  1.00  0.00     0.093 A 
ATOM     11  C   UNL     1      57.150 160.401  40.745  1.00  0.00     0.094 A 
ATOM     12  C   UNL     1      57.034 159.504  41.799  1.00  0.00     0.123 A 
BRANCH   6  13
ATOM     13  C   UNL     1      59.493 162.631  37.300  1.00  0.00     0.021 A 
ATOM     14  C   UNL     1      59.900 163.963  37.471  1.00  0.00     0.016 A 
ATOM     15  C   UNL     1      58.980 162.238  36.053  1.00  0.00     0.016 A 
ATOM     16  C   UNL     1      59.782 164.888  36.429  1.00  0.00     0.047 A 
ATOM     17  C   UNL     1      58.864 163.160  35.011  1.00  0.00     0.047 A 
ATOM     18  C   UNL     1      59.262 164.476  35.208  1.00  0.00     0.115 A 
BRANCH  18  19
ATOM     19  O   UNL     1      59.127 165.343  34.164  1.00  0.00    -0.508 OA
ATOM     20  H   UNL     1      58.200 165.337  33.873  1.00  0.00     0.293 HD
ENDBRANCH  18  19
ENDBRANCH   6  13
BRANCH   7  21
ATOM     21  O   UNL     1      60.428 158.192  42.037  1.00  0.00    -0.507 OA
ATOM     22  H   UNL     1      60.961 157.890  41.282  1.00  0.00     0.293 HD
ENDBRANCH   7  21
BRANCH  12  23
ATOM     23  O   UNL     1      55.849 159.314  42.446  1.00  0.00    -0.508 OA
ATOM     24  H   UNL     1      56.021 159.132  43.385  1.00  0.00     0.293 HD
ENDBRANCH  12  23
ENDBRANCH   1   2
BRANCH   1  25
ATOM     25  C   UNL     1      62.857 162.045  38.709  1.00  0.00     0.339 C 
ATOM     26  O   UNL     1      62.797 163.347  38.133  1.00  0.00    -0.332 OA
ATOM     27  C   UNL     1      64.271 161.446  38.510  1.00  0.00     0.214 C 
ATOM     28  C   UNL     1      63.598 164.318  38.838  1.00  0.00     0.179 C 
ATOM     29  C   UNL     1      65.379 162.496  38.734  1.00  0.00     0.180 C 
ATOM     30  C   UNL     1      64.859 163.722  39.498  1.00  0.00     0.177 C 
BRANCH  27  31
ATOM     31  O   UNL     1      64.514 160.341  39.397  1.00  0.00    -0.384 OA
ATOM     32  H   UNL     1      63.652 159.895  39.578  1.00  0.00     0.211 HD
ENDBRANCH  27  31
BRANCH  28  33
ATOM     33  C   UNL     1      63.939 165.403  37.810  1.00  0.00     0.191 C 
BRANCH  33  34
ATOM     34  O   UNL     1      63.769 164.881  36.488  1.00  0.00    -0.394 OA
ATOM     35  H   UNL     1      64.666 164.854  36.099  1.00  0.00     0.210 HD
ENDBRANCH  33  34
ENDBRANCH  28  33
BRANCH  29  36
ATOM     36  O   UNL     1      65.952 162.917  37.493  1.00  0.00    -0.387 OA
ATOM     37  H   UNL     1      66.745 162.369  37.345  1.00  0.00     0.211 HD
ENDBRANCH  29  36
BRANCH  30  38
ATOM     38  O   UNL     1      64.516 163.336  40.840  1.00  0.00    -0.387 OA
ATOM     39  H   UNL     1      64.680 162.379  40.929  1.00  0.00     0.211 HD
ENDBRANCH  30  38
ENDBRANCH   1  25
TORSDOF 11
ENDMDL
MODEL 3
REMARK VINA RESULT:    -5.727      1.317      2.112
REMARK INTER + INTRA:          -9.753
REMARK INTER:                  -8.858
REMARK INTRA:                  -0.895
REMARK UNBOUND:                -1.515
REMARK SMILES O=c1c(O[C@@H]2O[C@H](CO)[C@@H](O)[C@H](O)[C@H]2O)c(-c2ccc(O)cc2)oc2cc(O)cc(O)c12
REMARK SMILES IDX 4 1 3 2 1 3 2 4 32 5 16 6 30 7 25 8 24 9 29 10 26 11 27 12
REMARK SMILES IDX 17 13 18 14 23 15 19 16 22 17 20 18 21 19 31 21 28 23 5 25
REMARK SMILES IDX 6 26 14 27 7 28 12 29 10 30 15 31 8 33 9 34 13 36 11 38
REMARK H PARENT 21 20 31 22 28 24 15 32 9 35 13 37 11 39
ROOT
ATOM      1  O   UNL     1      60.203 160.680  37.950  1.00  0.00    -0.454 OA
ENDROOT
BRANCH   1   2
ATOM      2  C   UNL     1      60.584 161.950  37.561  1.00  0.00     0.214 A 
ATOM      3  O   UNL     1      58.759 162.058  36.097  1.00  0.00    -0.285 OA
ATOM      4  C   UNL     1      59.762 162.624  36.521  1.00  0.00     0.239 A 
ATOM      5  C   UNL     1      60.215 163.962  36.078  1.00  0.00     0.111 A 
ATOM      6  C   UNL     1      61.674 162.577  38.040  1.00  0.00     0.180 A 
ATOM      7  C   UNL     1      59.554 164.708  35.093  1.00  0.00     0.134 A 
ATOM      8  C   UNL     1      61.355 164.496  36.684  1.00  0.00     0.146 A 
ATOM      9  O   UNL     1      62.070 163.846  37.657  1.00  0.00    -0.452 OA
ATOM     10  C   UNL     1      60.031 165.969  34.725  1.00  0.00     0.093 A 
ATOM     11  C   UNL     1      61.835 165.757  36.319  1.00  0.00     0.094 A 
ATOM     12  C   UNL     1      61.167 166.481  35.341  1.00  0.00     0.123 A 
BRANCH   6  13
ATOM     13  C   UNL     1      62.538 161.988  39.083  1.00  0.00     0.021 A 
ATOM     14  C   UNL     1      63.425 160.938  38.798  1.00  0.00     0.016 A 
ATOM     15  C   UNL     1      62.488 162.491  40.393  1.00  0.00     0.016 A 
ATOM     16  C   UNL     1      64.230 160.389  39.801  1.00  0.00     0.047 A 
ATOM     17  C   UNL     1      63.294 161.945  41.394  1.00  0.00     0.047 A 
ATOM     18  C   UNL     1      64.154 160.898  41.092  1.00  0.00     0.115 A 
BRANCH  18  19
ATOM     19  O   UNL     1      64.919 160.392  42.101  1.00  0.00    -0.508 OA
ATOM     20  H   UNL     1      65.520 161.087  42.413  1.00  0.00     0.293 HD
ENDBRANCH  18  19
ENDBRANCH   6  13
BRANCH   7  21
ATOM     21  O   UNL     1      58.438 164.222  34.476  1.00  0.00    -0.507 OA
ATOM     22  H   UNL     1      58.376 163.260  34.604  1.00  0.00     0.293 HD
ENDBRANCH   7  21
BRANCH  12  23
ATOM     23  O   UNL     1      61.596 167.714  34.950  1.00  0.00    -0.508 OA
ATOM     24  H   UNL     1      61.538 167.783  33.982  1.00  0.00     0.293 HD
ENDBRANCH  12  23
ENDBRANCH   1   2
BRANCH   1  25
ATOM     25  C   UNL     1      59.214 160.719  38.996  1.00  0.00     0.339 C 
ATOM     26  O   UNL     1      59.139 162.061  39.468  1.00  0.00    -0.332 OA
ATOM     27  C   UNL     1      59.705 159.787  40.130  1.00  0.00     0.214 C 
ATOM     28  C   UNL     1      58.098 162.262  40.446  1.00  0.00     0.179 C 
ATOM     29  C   UNL     1      59.065 160.145  41.488  1.00  0.00     0.180 C 
ATOM     30  C   UNL     1      57.816 161.020  41.319  1.00  0.00     0.177 C 
BRANCH  27  31
ATOM     31  O   UNL     1      59.418 158.406  39.850  1.00  0.00    -0.384 OA
ATOM     32  H   UNL     1      60.248 157.887  39.972  1.00  0.00     0.211 HD
ENDBRANCH  27  31
BRANCH  28  33
ATOM     33  C   UNL     1      58.537 163.470  41.281  1.00  0.00     0.191 C 
BRANCH  33  34
ATOM     34  O   UNL     1      58.059 163.324  42.622  1.00  0.00    -0.394 OA
ATOM     35  H   UNL     1      57.088 163.426  42.567  1.00  0.00     0.210 HD
ENDBRANCH  33  34
ENDBRANCH  28  33
BRANCH  29  36
ATOM     36  O   UNL     1      60.001 160.812  42.341  1.00  0.00    -0.387 OA
ATOM     37  H   UNL     1      60.785 161.016  41.798  1.00  0.00     0.211 HD
ENDBRANCH  29  36
BRANCH  30  38
ATOM     38  O   UNL     1      56.782 160.254  40.677  1.00  0.00    -0.387 OA
ATOM     39  H   UNL     1      57.208 159.618  40.075  1.00  0.00     0.211 HD
ENDBRANCH  30  38
ENDBRANCH   1  25
TORSDOF 11
ENDMDL
MODEL 4
REMARK VINA RESULT:    -5.406      3.708      6.490
REMARK INTER + INTRA:          -9.290
REMARK INTER:                  -7.795
REMARK INTRA:                  -1.495
REMARK UNBOUND:                -1.515
REMARK SMILES O=c1c(O[C@@H]2O[C@H](CO)[C@@H](O)[C@H](O)[C@H]2O)c(-c2ccc(O)cc2)oc2cc(O)cc(O)c12
REMARK SMILES IDX 4 1 3 2 1 3 2 4 32 5 16 6 30 7 25 8 24 9 29 10 26 11 27 12
REMARK SMILES IDX 17 13 18 14 23 15 19 16 22 17 20 18 21 19 31 21 28 23 5 25
REMARK SMILES IDX 6 26 14 27 7 28 12 29 10 30 15 31 8 33 9 34 13 36 11 38
REMARK H PARENT 21 20 31 22 28 24 15 32 9 35 13 37 11 39
ROOT
ATOM      1  O   UNL     1      59.700 166.862  37.024  1.00  0.00    -0.454 OA
ENDROOT
BRANCH   1   2
ATOM      2  C   UNL     1      60.813 166.684  36.225  1.00  0.00     0.214 A 
ATOM      3  O   UNL     1      61.196 168.995  36.231  1.00  0.00    -0.285 OA
ATOM      4  C   UNL     1      61.559 167.902  35.808  1.00  0.00     0.239 A 
ATOM      5  C   UNL     1      62.718 167.697  34.909  1.00  0.00     0.111 A 
ATOM      6  C   UNL     1      61.221 165.483  35.777  1.00  0.00     0.180 A 
ATOM      7  C   UNL     1      63.503 168.749  34.419  1.00  0.00     0.134 A 
ATOM      8  C   UNL     1      63.035 166.386  34.545  1.00  0.00     0.146 A 
ATOM      9  O   UNL     1      62.330 165.290  34.972  1.00  0.00    -0.452 OA
ATOM     10  C   UNL     1      64.587 168.487  33.578  1.00  0.00     0.093 A 
ATOM     11  C   UNL     1      64.120 166.119  33.705  1.00  0.00     0.094 A 
ATOM     12  C   UNL     1      64.885 167.175  33.229  1.00  0.00     0.123 A 
BRANCH   6  13
ATOM     13  C   UNL     1      60.548 164.223  36.151  1.00  0.00     0.021 A 
ATOM     14  C   UNL     1      60.936 163.489  37.283  1.00  0.00     0.016 A 
ATOM     15  C   UNL     1      59.486 163.742  35.369  1.00  0.00     0.016 A 
ATOM     16  C   UNL     1      60.292 162.294  37.617  1.00  0.00     0.047 A 
ATOM     17  C   UNL     1      58.840 162.550  35.703  1.00  0.00     0.047 A 
ATOM     18  C   UNL     1      59.250 161.835  36.821  1.00  0.00     0.115 A 
BRANCH  18  19
ATOM     19  O   UNL     1      58.595 160.674  37.107  1.00  0.00    -0.508 OA
ATOM     20  H   UNL     1      59.085 159.935  36.713  1.00  0.00     0.293 HD
ENDBRANCH  18  19
ENDBRANCH   6  13
BRANCH   7  21
ATOM     21  O   UNL     1      63.226 170.044  34.750  1.00  0.00    -0.507 OA
ATOM     22  H   UNL     1      62.440 170.353  34.268  1.00  0.00     0.293 HD
ENDBRANCH   7  21
BRANCH  12  23
ATOM     23  O   UNL     1      65.952 166.967  32.406  1.00  0.00    -0.508 OA
ATOM     24  H   UNL     1      65.727 167.260  31.507  1.00  0.00     0.293 HD
ENDBRANCH  12  23
ENDBRANCH   1   2
BRANCH   1  25
ATOM     25  C   UNL     1      60.058 167.008  38.410  1.00  0.00     0.339 C 
ATOM     26  O   UNL     1      59.643 165.827  39.089  1.00  0.00    -0.332 OA
ATOM     27  C   UNL     1      59.286 168.232  38.960  1.00  0.00     0.214 C 
ATOM     28  C   UNL     1      60.047 165.795  40.473  1.00  0.00     0.179 C 
ATOM     29  C   UNL     1      59.136 168.176  40.495  1.00  0.00     0.180 C 
ATOM     30  C   UNL     1      60.124 167.189  41.131  1.00  0.00     0.177 C 
BRANCH  27  31
ATOM     31  O   UNL     1      59.932 169.470  38.618  1.00  0.00    -0.384 OA
ATOM     32  H   UNL     1      60.527 169.725  39.362  1.00  0.00     0.211 HD
ENDBRANCH  27  31
BRANCH  28  33
ATOM     33  C   UNL     1      59.045 164.875  41.180  1.00  0.00     0.191 C 
BRANCH  33  34
ATOM     34  O   UNL     1      57.797 164.897  40.479  1.00  0.00    -0.394 OA
ATOM     35  H   UNL     1      57.133 165.191  41.135  1.00  0.00     0.210 HD
ENDBRANCH  33  34
ENDBRANCH  28  33
BRANCH  29  36
ATOM     36  O   UNL     1      57.801 167.823  40.872  1.00  0.00    -0.387 OA
ATOM     37  H   UNL     1      57.371 168.637  41.192  1.00  0.00     0.211 HD
ENDBRANCH  29  36
BRANCH  30  38
ATOM     38  O   UNL     1      61.464 167.684  40.965  1.00  0.00    -0.387 OA
ATOM     39  H   UNL     1      61.606 167.855  40.016  1.00  0.00     0.211 HD
ENDBRANCH  30  38
ENDBRANCH   1  25
TORSDOF 11
ENDMDL
MODEL 5
REMARK VINA RESULT:    -5.385      3.988      7.000
REMARK INTER + INTRA:          -9.260
REMARK INTER:                  -7.758
REMARK INTRA:                  -1.502
REMARK UNBOUND:                -1.515
REMARK SMILES O=c1c(O[C@@H]2O[C@H](CO)[C@@H](O)[C@H](O)[C@H]2O)c(-c2ccc(O)cc2)oc2cc(O)cc(O)c12
REMARK SMILES IDX 4 1 3 2 1 3 2 4 32 5 16 6 30 7 25 8 24 9 29 10 26 11 27 12
REMARK SMILES IDX 17 13 18 14 23 15 19 16 22 17 20 18 21 19 31 21 28 23 5 25
REMARK SMILES IDX 6 26 14 27 7 28 12 29 10 30 15 31 8 33 9 34 13 36 11 38
REMARK H PARENT 21 20 31 22 28 24 15 32 9 35 13 37 11 39
ROOT
ATOM      1  O   UNL     1      58.801 163.556  41.033  1.00  0.00    -0.454 OA
ENDROOT
BRANCH   1   2
ATOM      2  C   UNL     1      57.439 163.341  41.116  1.00  0.00     0.214 A 
ATOM      3  O   UNL     1      57.059 165.649  40.990  1.00  0.00    -0.285 OA
ATOM      4  C   UNL     1      56.555 164.537  41.119  1.00  0.00     0.239 A 
ATOM      5  C   UNL     1      55.102 164.290  41.262  1.00  0.00     0.111 A 
ATOM      6  C   UNL     1      56.887 162.120  41.239  1.00  0.00     0.180 A 
ATOM      7  C   UNL     1      54.150 165.318  41.300  1.00  0.00     0.134 A 
ATOM      8  C   UNL     1      54.674 162.964  41.357  1.00  0.00     0.146 A 
ATOM      9  O   UNL     1      55.526 161.890  41.328  1.00  0.00    -0.452 OA
ATOM     10  C   UNL     1      52.792 165.018  41.432  1.00  0.00     0.093 A 
ATOM     11  C   UNL     1      53.316 162.659  41.488  1.00  0.00     0.094 A 
ATOM     12  C   UNL     1      52.388 163.691  41.524  1.00  0.00     0.123 A 
BRANCH   6  13
ATOM     13  C   UNL     1      57.687 160.879  41.232  1.00  0.00     0.021 A 
ATOM     14  C   UNL     1      58.216 160.337  42.414  1.00  0.00     0.016 A 
ATOM     15  C   UNL     1      57.922 160.210  40.020  1.00  0.00     0.016 A 
ATOM     16  C   UNL     1      58.977 159.165  42.386  1.00  0.00     0.047 A 
ATOM     17  C   UNL     1      58.680 159.038  39.992  1.00  0.00     0.047 A 
ATOM     18  C   UNL     1      59.204 158.527  41.173  1.00  0.00     0.115 A 
BRANCH  18  19
ATOM     19  O   UNL     1      59.941 157.383  41.098  1.00  0.00    -0.508 OA
ATOM     20  H   UNL     1      59.377 156.632  41.344  1.00  0.00     0.293 HD
ENDBRANCH  18  19
ENDBRANCH   6  13
BRANCH   7  21
ATOM     21  O   UNL     1      54.528 166.627  41.212  1.00  0.00    -0.507 OA
ATOM     22  H   UNL     1      55.496 166.695  41.172  1.00  0.00     0.293 HD
ENDBRANCH   7  21
BRANCH  12  23
ATOM     23  O   UNL     1      51.053 163.444  41.651  1.00  0.00    -0.508 OA
ATOM     24  H   UNL     1      50.842 163.291  42.587  1.00  0.00     0.293 HD
ENDBRANCH  12  23
ENDBRANCH   1   2
BRANCH   1  25
ATOM     25  C   UNL     1      59.252 163.585  39.666  1.00  0.00     0.339 C 
ATOM     26  O   UNL     1      60.083 162.446  39.462  1.00  0.00    -0.332 OA
ATOM     27  C   UNL     1      60.079 164.881  39.481  1.00  0.00     0.214 C 
ATOM     28  C   UNL     1      60.511 162.293  38.093  1.00  0.00     0.179 C 
ATOM     29  C   UNL     1      61.053 164.777  38.288  1.00  0.00     0.180 C 
ATOM     30  C   UNL     1      60.677 163.630  37.340  1.00  0.00     0.177 C 
BRANCH  27  31
ATOM     31  O   UNL     1      59.237 166.028  39.274  1.00  0.00    -0.384 OA
ATOM     32  H   UNL     1      59.659 166.601  38.590  1.00  0.00     0.211 HD
ENDBRANCH  27  31
BRANCH  28  33
ATOM     33  C   UNL     1      61.819 161.495  38.152  1.00  0.00     0.191 C 
BRANCH  33  34
ATOM     34  O   UNL     1      62.436 161.680  39.430  1.00  0.00    -0.394 OA
ATOM     35  H   UNL     1      61.713 161.944  40.035  1.00  0.00     0.210 HD
ENDBRANCH  33  34
ENDBRANCH  28  33
BRANCH  29  36
ATOM     36  O   UNL     1      62.401 164.602  38.735  1.00  0.00    -0.387 OA
ATOM     37  H   UNL     1      62.758 165.491  38.918  1.00  0.00     0.211 HD
ENDBRANCH  29  36
BRANCH  30  38
ATOM     38  O   UNL     1      59.426 163.934  36.699  1.00  0.00    -0.387 OA
ATOM     39  H   UNL     1      59.263 164.890  36.795  1.00  0.00     0.211 HD
ENDBRANCH  30  38
ENDBRANCH   1  25
TORSDOF 11
ENDMDL
MODEL 6
REMARK VINA RESULT:    -5.256      7.550      9.694
REMARK INTER + INTRA:          -9.075
REMARK INTER:                  -8.717
REMARK INTRA:                  -0.357
REMARK UNBOUND:                -1.515
REMARK SMILES O=c1c(O[C@@H]2O[C@H](CO)[C@@H](O)[C@H](O)[C@H]2O)c(-c2ccc(O)cc2)oc2cc(O)cc(O)c12
REMARK SMILES IDX 4 1 3 2 1 3 2 4 32 5 16 6 30 7 25 8 24 9 29 10 26 11 27 12
REMARK SMILES IDX 17 13 18 14 23 15 19 16 22 17 20 18 21 19 31 21 28 23 5 25
REMARK SMILES IDX 6 26 14 27 7 28 12 29 10 30 15 31 8 33 9 34 13 36 11 38
REMARK H PARENT 21 20 31 22 28 24 15 32 9 35 13 37 11 39
ROOT
ATOM      1  O   UNL     1      52.840 164.604  39.948  1.00  0.00    -0.454 OA
ENDROOT
BRANCH   1   2
ATOM      2  C   UNL     1      54.070 164.899  40.504  1.00  0.00     0.214 A 
ATOM      3  O   UNL     1      53.923 167.089  39.685  1.00  0.00    -0.285 OA
ATOM      4  C   UNL     1      54.608 166.269  40.289  1.00  0.00     0.239 A 
ATOM      5  C   UNL     1      55.951 166.551  40.846  1.00  0.00     0.111 A 
ATOM      6  C   UNL     1      54.812 164.004  41.181  1.00  0.00     0.180 A 
ATOM      7  C   UNL     1      56.594 167.788  40.707  1.00  0.00     0.134 A 
ATOM      8  C   UNL     1      56.592 165.526  41.547  1.00  0.00     0.146 A 
ATOM      9  O   UNL     1      56.047 164.283  41.739  1.00  0.00    -0.452 OA
ATOM     10  C   UNL     1      57.860 167.991  41.262  1.00  0.00     0.093 A 
ATOM     11  C   UNL     1      57.859 165.726  42.105  1.00  0.00     0.094 A 
ATOM     12  C   UNL     1      58.480 166.958  41.956  1.00  0.00     0.123 A 
BRANCH   6  13
ATOM     13  C   UNL     1      54.350 162.628  41.452  1.00  0.00     0.021 A 
ATOM     14  C   UNL     1      53.115 162.374  42.071  1.00  0.00     0.016 A 
ATOM     15  C   UNL     1      55.151 161.538  41.077  1.00  0.00     0.016 A 
ATOM     16  C   UNL     1      52.699 161.064  42.326  1.00  0.00     0.047 A 
ATOM     17  C   UNL     1      54.735 160.230  41.328  1.00  0.00     0.047 A 
ATOM     18  C   UNL     1      53.515 160.003  41.953  1.00  0.00     0.115 A 
BRANCH  18  19
ATOM     19  O   UNL     1      53.150 158.710  42.183  1.00  0.00    -0.508 OA
ATOM     20  H   UNL     1      52.635 158.393  41.424  1.00  0.00     0.293 HD
ENDBRANCH  18  19
ENDBRANCH   6  13
BRANCH   7  21
ATOM     21  O   UNL     1      56.002 168.814  40.029  1.00  0.00    -0.507 OA
ATOM     22  H   UNL     1      55.037 168.778  40.141  1.00  0.00     0.293 HD
ENDBRANCH   7  21
BRANCH  12  23
ATOM     23  O   UNL     1      59.714 167.202  42.481  1.00  0.00    -0.508 OA
ATOM     24  H   UNL     1      60.190 166.361  42.586  1.00  0.00     0.293 HD
ENDBRANCH  12  23
ENDBRANCH   1   2
BRANCH   1  25
ATOM     25  C   UNL     1      51.758 165.105  40.755  1.00  0.00     0.339 C 
ATOM     26  O   UNL     1      51.062 163.982  41.287  1.00  0.00    -0.332 OA
ATOM     27  C   UNL     1      50.822 165.912  39.823  1.00  0.00     0.214 C 
ATOM     28  C   UNL     1      50.017 164.347  42.213  1.00  0.00     0.179 C 
ATOM     29  C   UNL     1      49.395 166.027  40.398  1.00  0.00     0.180 C 
ATOM     30  C   UNL     1      49.355 165.705  41.899  1.00  0.00     0.177 C 
BRANCH  27  31
ATOM     31  O   UNL     1      51.318 167.241  39.586  1.00  0.00    -0.384 OA
ATOM     32  H   UNL     1      50.761 167.658  38.887  1.00  0.00     0.211 HD
ENDBRANCH  27  31
BRANCH  28  33
ATOM     33  C   UNL     1      49.011 163.191  42.183  1.00  0.00     0.191 C 
BRANCH  33  34
ATOM     34  O   UNL     1      49.056 162.549  40.905  1.00  0.00    -0.394 OA
ATOM     35  H   UNL     1      48.158 162.650  40.528  1.00  0.00     0.210 HD
ENDBRANCH  33  34
ENDBRANCH  28  33
BRANCH  29  36
ATOM     36  O   UNL     1      48.486 165.168  39.703  1.00  0.00    -0.387 OA
ATOM     37  H   UNL     1      48.396 165.521  38.799  1.00  0.00     0.211 HD
ENDBRANCH  29  36
BRANCH  30  38
ATOM     38  O   UNL     1      50.069 166.723  42.622  1.00  0.00    -0.387 OA
ATOM     39  H   UNL     1      50.054 167.538  42.089  1.00  0.00     0.211 HD
ENDBRANCH  30  38
ENDBRANCH   1  25
TORSDOF 11
ENDMDL
MODEL 7
REMARK VINA RESULT:    -4.913      1.858      4.870
REMARK INTER + INTRA:          -8.582
REMARK INTER:                  -7.311
REMARK INTRA:                  -1.271
REMARK UNBOUND:                -1.515
REMARK SMILES O=c1c(O[C@@H]2O[C@H](CO)[C@@H](O)[C@H](O)[C@H]2O)c(-c2ccc(O)cc2)oc2cc(O)cc(O)c12
REMARK SMILES IDX 4 1 3 2 1 3 2 4 32 5 16 6 30 7 25 8 24 9 29 10 26 11 27 12
REMARK SMILES IDX 17 13 18 14 23 15 19 16 22 17 20 18 21 19 31 21 28 23 5 25
REMARK SMILES IDX 6 26 14 27 7 28 12 29 10 30 15 31 8 33 9 34 13 36 11 38
REMARK H PARENT 21 20 31 22 28 24 15 32 9 35 13 37 11 39
ROOT
ATOM      1  O   UNL     1      62.291 163.923  39.536  1.00  0.00    -0.454 OA
ENDROOT
BRANCH   1   2
ATOM      2  C   UNL     1      61.733 164.419  38.373  1.00  0.00     0.214 A 
ATOM      3  O   UNL     1      63.575 165.837  38.084  1.00  0.00    -0.285 OA
ATOM      4  C   UNL     1      62.481 165.485  37.654  1.00  0.00     0.239 A 
ATOM      5  C   UNL     1      61.843 166.041  36.439  1.00  0.00     0.111 A 
ATOM      6  C   UNL     1      60.542 164.019  37.892  1.00  0.00     0.180 A 
ATOM      7  C   UNL     1      62.418 167.062  35.671  1.00  0.00     0.134 A 
ATOM      8  C   UNL     1      60.611 165.509  36.050  1.00  0.00     0.146 A 
ATOM      9  O   UNL     1      59.969 164.510  36.733  1.00  0.00    -0.452 OA
ATOM     10  C   UNL     1      61.767 167.540  34.531  1.00  0.00     0.093 A 
ATOM     11  C   UNL     1      59.956 165.984  34.909  1.00  0.00     0.094 A 
ATOM     12  C   UNL     1      60.542 166.996  34.161  1.00  0.00     0.123 A 
BRANCH   6  13
ATOM     13  C   UNL     1      59.739 162.958  38.534  1.00  0.00     0.021 A 
ATOM     14  C   UNL     1      59.563 161.702  37.932  1.00  0.00     0.016 A 
ATOM     15  C   UNL     1      59.141 163.196  39.781  1.00  0.00     0.016 A 
ATOM     16  C   UNL     1      58.793 160.713  38.551  1.00  0.00     0.047 A 
ATOM     17  C   UNL     1      58.375 162.208  40.402  1.00  0.00     0.047 A 
ATOM     18  C   UNL     1      58.204 160.977  39.781  1.00  0.00     0.115 A 
BRANCH  18  19
ATOM     19  O   UNL     1      57.444 160.043  40.420  1.00  0.00    -0.508 OA
ATOM     20  H   UNL     1      56.761 160.500  40.938  1.00  0.00     0.293 HD
ENDBRANCH  18  19
ENDBRANCH   6  13
BRANCH   7  21
ATOM     21  O   UNL     1      63.620 167.609  36.018  1.00  0.00    -0.507 OA
ATOM     22  H   UNL     1      64.240 167.559  35.273  1.00  0.00     0.293 HD
ENDBRANCH   7  21
BRANCH  12  23
ATOM     23  O   UNL     1      59.943 167.492  33.042  1.00  0.00    -0.508 OA
ATOM     24  H   UNL     1      60.214 166.966  32.271  1.00  0.00     0.293 HD
ENDBRANCH  12  23
ENDBRANCH   1   2
BRANCH   1  25
ATOM     25  C   UNL     1      62.966 162.672  39.310  1.00  0.00     0.339 C 
ATOM     26  O   UNL     1      62.315 161.682  40.101  1.00  0.00    -0.332 OA
ATOM     27  C   UNL     1      64.430 162.845  39.783  1.00  0.00     0.214 C 
ATOM     28  C   UNL     1      62.825 160.351  39.879  1.00  0.00     0.179 C 
ATOM     29  C   UNL     1      65.092 161.492  40.115  1.00  0.00     0.180 C 
ATOM     30  C   UNL     1      64.322 160.313  39.506  1.00  0.00     0.177 C 
BRANCH  27  31
ATOM     31  O   UNL     1      65.237 163.509  38.795  1.00  0.00    -0.384 OA
ATOM     32  H   UNL     1      65.028 164.473  38.823  1.00  0.00     0.211 HD
ENDBRANCH  27  31
BRANCH  28  33
ATOM     33  C   UNL     1      62.527 159.570  41.164  1.00  0.00     0.191 C 
BRANCH  33  34
ATOM     34  O   UNL     1      61.286 158.872  41.024  1.00  0.00    -0.394 OA
ATOM     35  H   UNL     1      61.473 157.948  41.287  1.00  0.00     0.210 HD
ENDBRANCH  33  34
ENDBRANCH  28  33
BRANCH  29  36
ATOM     36  O   UNL     1      65.208 161.305  41.530  1.00  0.00    -0.387 OA
ATOM     37  H   UNL     1      64.303 161.299  41.890  1.00  0.00     0.211 HD
ENDBRANCH  29  36
BRANCH  30  38
ATOM     38  O   UNL     1      64.423 160.368  38.073  1.00  0.00    -0.387 OA
ATOM     39  H   UNL     1      64.172 159.495  37.720  1.00  0.00     0.211 HD
ENDBRANCH  30  38
ENDBRANCH   1  25
TORSDOF 11
ENDMDL
MODEL 8
REMARK VINA RESULT:    -4.849      9.175     11.333
REMARK INTER + INTRA:          -8.489
REMARK INTER:                  -9.634
REMARK INTRA:                   1.145
REMARK UNBOUND:                -1.515
REMARK SMILES O=c1c(O[C@@H]2O[C@H](CO)[C@@H](O)[C@H](O)[C@H]2O)c(-c2ccc(O)cc2)oc2cc(O)cc(O)c12
REMARK SMILES IDX 4 1 3 2 1 3 2 4 32 5 16 6 30 7 25 8 24 9 29 10 26 11 27 12
REMARK SMILES IDX 17 13 18 14 23 15 19 16 22 17 20 18 21 19 31 21 28 23 5 25
REMARK SMILES IDX 6 26 14 27 7 28 12 29 10 30 15 31 8 33 9 34 13 36 11 38
REMARK H PARENT 21 20 31 22 28 24 15 32 9 35 13 37 11 39
ROOT
ATOM      1  O   UNL     1      50.486 163.735  42.622  1.00  0.00    -0.454 OA
ENDROOT
BRANCH   1   2
ATOM      2  C   UNL     1      51.444 164.604  42.134  1.00  0.00     0.214 A 
ATOM      3  O   UNL     1      49.994 166.410  42.481  1.00  0.00    -0.285 OA
ATOM      4  C   UNL     1      51.087 166.046  42.059  1.00  0.00     0.239 A 
ATOM      5  C   UNL     1      52.105 166.954  41.484  1.00  0.00     0.111 A 
ATOM      6  C   UNL     1      52.649 164.205  41.688  1.00  0.00     0.180 A 
ATOM      7  C   UNL     1      51.904 168.332  41.331  1.00  0.00     0.134 A 
ATOM      8  C   UNL     1      53.322 166.396  41.084  1.00  0.00     0.146 A 
ATOM      9  O   UNL     1      53.615 165.062  41.192  1.00  0.00    -0.452 OA
ATOM     10  C   UNL     1      52.909 169.136  40.786  1.00  0.00     0.093 A 
ATOM     11  C   UNL     1      54.330 167.197  40.538  1.00  0.00     0.094 A 
ATOM     12  C   UNL     1      54.112 168.560  40.395  1.00  0.00     0.123 A 
BRANCH   6  13
ATOM     13  C   UNL     1      53.091 162.797  41.738  1.00  0.00     0.021 A 
ATOM     14  C   UNL     1      52.245 161.775  42.199  1.00  0.00     0.016 A 
ATOM     15  C   UNL     1      54.383 162.457  41.307  1.00  0.00     0.016 A 
ATOM     16  C   UNL     1      52.685 160.448  42.245  1.00  0.00     0.047 A 
ATOM     17  C   UNL     1      54.822 161.133  41.350  1.00  0.00     0.047 A 
ATOM     18  C   UNL     1      53.972 160.141  41.822  1.00  0.00     0.115 A 
BRANCH  18  19
ATOM     19  O   UNL     1      54.443 158.862  41.851  1.00  0.00    -0.508 OA
ATOM     20  H   UNL     1      54.009 158.387  42.578  1.00  0.00     0.293 HD
ENDBRANCH  18  19
ENDBRANCH   6  13
BRANCH   7  21
ATOM     21  O   UNL     1      50.729 168.915  41.709  1.00  0.00    -0.507 OA
ATOM     22  H   UNL     1      49.994 168.562  41.180  1.00  0.00     0.293 HD
ENDBRANCH   7  21
BRANCH  12  23
ATOM     23  O   UNL     1      55.064 169.382  39.868  1.00  0.00    -0.508 OA
ATOM     24  H   UNL     1      55.451 168.963  39.082  1.00  0.00     0.293 HD
ENDBRANCH  12  23
ENDBRANCH   1   2
BRANCH   1  25
ATOM     25  C   UNL     1      49.468 163.461  41.643  1.00  0.00     0.339 C 
ATOM     26  O   UNL     1      48.944 164.711  41.206  1.00  0.00    -0.332 OA
ATOM     27  C   UNL     1      48.359 162.641  42.346  1.00  0.00     0.214 C 
ATOM     28  C   UNL     1      47.988 164.583  40.133  1.00  0.00     0.179 C 
ATOM     29  C   UNL     1      47.007 162.753  41.613  1.00  0.00     0.180 C 
ATOM     30  C   UNL     1      47.175 163.272  40.178  1.00  0.00     0.177 C 
BRANCH  27  31
ATOM     31  O   UNL     1      48.703 161.248  42.442  1.00  0.00    -0.384 OA
ATOM     32  H   UNL     1      47.869 160.722  42.426  1.00  0.00     0.211 HD
ENDBRANCH  27  31
BRANCH  28  33
ATOM     33  C   UNL     1      47.092 165.824  40.220  1.00  0.00     0.191 C 
BRANCH  33  34
ATOM     34  O   UNL     1      47.687 166.782  41.102  1.00  0.00    -0.394 OA
ATOM     35  H   UNL     1      47.213 166.685  41.952  1.00  0.00     0.210 HD
ENDBRANCH  33  34
ENDBRANCH  28  33
BRANCH  29  36
ATOM     36  O   UNL     1      46.101 163.604  42.323  1.00  0.00    -0.387 OA
ATOM     37  H   UNL     1      46.640 164.283  42.768  1.00  0.00     0.211 HD
ENDBRANCH  29  36
BRANCH  30  38
ATOM     38  O   UNL     1      47.875 162.289  39.396  1.00  0.00    -0.387 OA
ATOM     39  H   UNL     1      47.674 161.411  39.766  1.00  0.00     0.211 HD
ENDBRANCH  30  38
ENDBRANCH   1  25
TORSDOF 11
ENDMDL
