MODEL 1
REMARK VINA RESULT:    -7.788      0.000      0.000
REMARK INTER + INTRA:          -9.707
REMARK INTER:                  -9.609
REMARK INTRA:                  -0.097
REMARK UNBOUND:                -0.097
REMARK SMILES C#CC[N@H+](C)[C@H](C)Cc1ccccc1
REMARK SMILES IDX 4 1 5 2 3 4 2 5 1 6 6 7 7 8 8 9 9 10 10 11 14 12 11 13 13 14
REMARK SMILES IDX 12 15
REMARK H PARENT 4 3
ROOT
ATOM      1  N   UNL     1      53.684 152.477  24.796  1.00  0.00    -0.325 N 
ATOM      2  C   UNL     1      54.076 153.511  23.778  1.00  0.00     0.333 C 
ATOM      3  H   UNL     1      52.969 151.893  24.341  1.00  0.00     0.348 HD
ENDROOT
BRANCH   1   4
ATOM      4  C   UNL     1      54.823 151.517  25.070  1.00  0.00     0.353 C 
ATOM      5  C   UNL     1      54.364 150.149  24.831  1.00  0.00    -0.047 C 
ATOM      6  C   UNL     1      53.990 149.024  24.631  1.00  0.00     0.010 C 
ENDBRANCH   1   4
BRANCH   1   7
ATOM      7  C   UNL     1      53.022 153.030  26.073  1.00  0.00     0.185 C 
ATOM      8  C   UNL     1      52.142 151.931  26.678  1.00  0.00     0.075 C 
BRANCH   7   9
ATOM      9  C   UNL     1      52.245 154.335  25.798  1.00  0.00     0.100 C 
BRANCH   9  10
ATOM     10  C   UNL     1      52.174 155.232  27.010  1.00  0.00    -0.042 A 
ATOM     11  C   UNL     1      51.426 154.852  28.133  1.00  0.00     0.004 A 
ATOM     12  C   UNL     1      52.865 156.452  27.032  1.00  0.00     0.004 A 
ATOM     13  C   UNL     1      51.378 155.674  29.260  1.00  0.00     0.000 A 
ATOM     14  C   UNL     1      52.815 157.271  28.161  1.00  0.00     0.000 A 
ATOM     15  C   UNL     1      52.073 156.881  29.274  1.00  0.00     0.000 A 
ENDBRANCH   9  10
ENDBRANCH   7   9
ENDBRANCH   1   7
TORSDOF 4
ENDMDL
MODEL 2
REMARK VINA RESULT:    -7.559      1.830      6.321
REMARK INTER + INTRA:          -9.424
REMARK INTER:                  -9.243
REMARK INTRA:                  -0.181
REMARK UNBOUND:                -0.097
REMARK SMILES C#CC[N@H+](C)[C@H](C)Cc1ccccc1
REMARK SMILES IDX 4 1 5 2 3 4 2 5 1 6 6 7 7 8 8 9 9 10 10 11 14 12 11 13 13 14
REMARK SMILES IDX 12 15
REMARK H PARENT 4 3
ROOT
ATOM      1  N   UNL     1      52.049 156.254  28.338  1.00  0.00    -0.325 N 
ATOM      2  C   UNL     1      51.540 155.334  29.413  1.00  0.00     0.333 C 
ATOM      3  H   UNL     1      51.214 156.672  27.907  1.00  0.00     0.348 HD
ENDROOT
BRANCH   1   4
ATOM      4  C   UNL     1      52.787 157.436  28.932  1.00  0.00     0.353 C 
ATOM      5  C   UNL     1      51.819 158.350  29.536  1.00  0.00    -0.047 C 
ATOM      6  C   UNL     1      51.025 159.101  30.036  1.00  0.00     0.010 C 
ENDBRANCH   1   4
BRANCH   1   7
ATOM      7  C   UNL     1      52.811 155.563  27.190  1.00  0.00     0.185 C 
ATOM      8  C   UNL     1      53.401 156.645  26.280  1.00  0.00     0.075 C 
BRANCH   7   9
ATOM      9  C   UNL     1      51.917 154.561  26.428  1.00  0.00     0.100 C 
BRANCH   9  10
ATOM     10  C   UNL     1      52.718 153.503  25.708  1.00  0.00    -0.042 A 
ATOM     11  C   UNL     1      52.766 152.191  26.199  1.00  0.00     0.004 A 
ATOM     12  C   UNL     1      53.414 153.818  24.532  1.00  0.00     0.004 A 
ATOM     13  C   UNL     1      53.492 151.211  25.520  1.00  0.00     0.000 A 
ATOM     14  C   UNL     1      54.139 152.835  23.856  1.00  0.00     0.000 A 
ATOM     15  C   UNL     1      54.176 151.533  24.350  1.00  0.00     0.000 A 
ENDBRANCH   9  10
ENDBRANCH   7   9
ENDBRANCH   1   7
TORSDOF 4
ENDMDL
MODEL 3
REMARK VINA RESULT:    -7.430      1.078      2.260
REMARK INTER + INTRA:          -9.264
REMARK INTER:                  -9.117
REMARK INTRA:                  -0.147
REMARK UNBOUND:                -0.097
REMARK SMILES C#CC[N@H+](C)[C@H](C)Cc1ccccc1
REMARK SMILES IDX 4 1 5 2 3 4 2 5 1 6 6 7 7 8 8 9 9 10 10 11 14 12 11 13 13 14
REMARK SMILES IDX 12 15
REMARK H PARENT 4 3
ROOT
ATOM      1  N   UNL     1      52.961 153.585  25.164  1.00  0.00    -0.325 N 
ATOM      2  C   UNL     1      53.961 153.724  24.051  1.00  0.00     0.333 C 
ATOM      3  H   UNL     1      52.080 153.300  24.715  1.00  0.00     0.348 HD
ENDROOT
BRANCH   1   4
ATOM      4  C   UNL     1      53.306 152.420  26.069  1.00  0.00     0.353 C 
ATOM      5  C   UNL     1      53.770 151.300  25.251  1.00  0.00    -0.047 C 
ATOM      6  C   UNL     1      54.155 150.380  24.581  1.00  0.00     0.010 C 
ENDBRANCH   1   4
BRANCH   1   7
ATOM      7  C   UNL     1      52.640 154.886  25.927  1.00  0.00     0.185 C 
ATOM      8  C   UNL     1      53.314 156.053  25.197  1.00  0.00     0.075 C 
BRANCH   7   9
ATOM      9  C   UNL     1      53.046 154.795  27.414  1.00  0.00     0.100 C 
BRANCH   9  10
ATOM     10  C   UNL     1      52.269 155.752  28.284  1.00  0.00    -0.042 A 
ATOM     11  C   UNL     1      52.713 157.070  28.464  1.00  0.00     0.004 A 
ATOM     12  C   UNL     1      51.086 155.339  28.914  1.00  0.00     0.004 A 
ATOM     13  C   UNL     1      51.981 157.958  29.254  1.00  0.00     0.000 A 
ATOM     14  C   UNL     1      50.358 156.231  29.703  1.00  0.00     0.000 A 
ATOM     15  C   UNL     1      50.805 157.539  29.871  1.00  0.00     0.000 A 
ENDBRANCH   9  10
ENDBRANCH   7   9
ENDBRANCH   1   7
TORSDOF 4
ENDMDL
MODEL 4
REMARK VINA RESULT:    -7.410      1.272      2.765
REMARK INTER + INTRA:          -9.240
REMARK INTER:                  -8.704
REMARK INTRA:                  -0.536
REMARK UNBOUND:                -0.097
REMARK SMILES C#CC[N@H+](C)[C@H](C)Cc1ccccc1
REMARK SMILES IDX 4 1 5 2 3 4 2 5 1 6 6 7 7 8 8 9 9 10 10 11 14 12 11 13 13 14
REMARK SMILES IDX 12 15
REMARK H PARENT 4 3
ROOT
ATOM      1  N   UNL     1      54.641 153.425  25.606  1.00  0.00    -0.325 N 
ATOM      2  C   UNL     1      55.679 152.342  25.502  1.00  0.00     0.333 C 
ATOM      3  H   UNL     1      55.071 154.172  26.167  1.00  0.00     0.348 HD
ENDROOT
BRANCH   1   4
ATOM      4  C   UNL     1      54.389 154.074  24.261  1.00  0.00     0.353 C 
ATOM      5  C   UNL     1      54.760 155.487  24.334  1.00  0.00    -0.047 C 
ATOM      6  C   UNL     1      55.069 156.647  24.391  1.00  0.00     0.010 C 
ENDBRANCH   1   4
BRANCH   1   7
ATOM      7  C   UNL     1      53.352 153.029  26.352  1.00  0.00     0.185 C 
ATOM      8  C   UNL     1      52.961 151.610  25.926  1.00  0.00     0.075 C 
BRANCH   7   9
ATOM      9  C   UNL     1      52.220 154.055  26.128  1.00  0.00     0.100 C 
BRANCH   9  10
ATOM     10  C   UNL     1      52.110 155.050  27.257  1.00  0.00    -0.042 A 
ATOM     11  C   UNL     1      51.362 154.745  28.403  1.00  0.00     0.004 A 
ATOM     12  C   UNL     1      52.764 156.288  27.180  1.00  0.00     0.004 A 
ATOM     13  C   UNL     1      51.278 155.659  29.454  1.00  0.00     0.000 A 
ATOM     14  C   UNL     1      52.677 157.200  28.233  1.00  0.00     0.000 A 
ATOM     15  C   UNL     1      51.935 156.884  29.369  1.00  0.00     0.000 A 
ENDBRANCH   9  10
ENDBRANCH   7   9
ENDBRANCH   1   7
TORSDOF 4
ENDMDL
MODEL 5
REMARK VINA RESULT:    -7.231      1.616      3.236
REMARK INTER + INTRA:          -9.019
REMARK INTER:                  -8.667
REMARK INTRA:                  -0.352
REMARK UNBOUND:                -0.097
REMARK SMILES C#CC[N@H+](C)[C@H](C)Cc1ccccc1
REMARK SMILES IDX 4 1 5 2 3 4 2 5 1 6 6 7 7 8 8 9 9 10 10 11 14 12 11 13 13 14
REMARK SMILES IDX 12 15
REMARK H PARENT 4 3
ROOT
ATOM      1  N   UNL     1      52.753 153.841  26.788  1.00  0.00    -0.325 N 
ATOM      2  C   UNL     1      51.893 152.761  27.385  1.00  0.00     0.333 C 
ATOM      3  H   UNL     1      53.698 153.687  27.164  1.00  0.00     0.348 HD
ENDROOT
BRANCH   1   4
ATOM      4  C   UNL     1      52.916 153.649  25.294  1.00  0.00     0.353 C 
ATOM      5  C   UNL     1      53.710 152.445  25.050  1.00  0.00    -0.047 C 
ATOM      6  C   UNL     1      54.357 151.453  24.848  1.00  0.00     0.010 C 
ENDBRANCH   1   4
BRANCH   1   7
ATOM      7  C   UNL     1      52.372 155.280  27.188  1.00  0.00     0.185 C 
ATOM      8  C   UNL     1      53.119 156.253  26.269  1.00  0.00     0.075 C 
BRANCH   7   9
ATOM      9  C   UNL     1      52.635 155.549  28.686  1.00  0.00     0.100 C 
BRANCH   9  10
ATOM     10  C   UNL     1      51.767 156.654  29.235  1.00  0.00    -0.042 A 
ATOM     11  C   UNL     1      52.245 157.970  29.298  1.00  0.00     0.004 A 
ATOM     12  C   UNL     1      50.465 156.380  29.680  1.00  0.00     0.004 A 
ATOM     13  C   UNL     1      51.433 158.993  29.789  1.00  0.00     0.000 A 
ATOM     14  C   UNL     1      49.656 157.406  30.171  1.00  0.00     0.000 A 
ATOM     15  C   UNL     1      50.140 158.712  30.223  1.00  0.00     0.000 A 
ENDBRANCH   9  10
ENDBRANCH   7   9
ENDBRANCH   1   7
TORSDOF 4
ENDMDL
MODEL 6
REMARK VINA RESULT:    -7.133      5.668      9.210
REMARK INTER + INTRA:          -8.898
REMARK INTER:                  -8.554
REMARK INTRA:                  -0.344
REMARK UNBOUND:                -0.097
REMARK SMILES C#CC[N@H+](C)[C@H](C)Cc1ccccc1
REMARK SMILES IDX 4 1 5 2 3 4 2 5 1 6 6 7 7 8 8 9 9 10 10 11 14 12 11 13 13 14
REMARK SMILES IDX 12 15
REMARK H PARENT 4 3
ROOT
ATOM      1  N   UNL     1      50.144 161.114  32.457  1.00  0.00    -0.325 N 
ATOM      2  C   UNL     1      49.335 162.265  31.924  1.00  0.00     0.333 C 
ATOM      3  H   UNL     1      50.680 161.492  33.250  1.00  0.00     0.348 HD
ENDROOT
BRANCH   1   4
ATOM      4  C   UNL     1      49.253 160.062  33.083  1.00  0.00     0.353 C 
ATOM      5  C   UNL     1      48.056 159.895  32.259  1.00  0.00    -0.047 C 
ATOM      6  C   UNL     1      47.075 159.753  31.580  1.00  0.00     0.010 C 
ENDBRANCH   1   4
BRANCH   1   7
ATOM      7  C   UNL     1      51.188 160.538  31.481  1.00  0.00     0.185 C 
ATOM      8  C   UNL     1      52.271 161.597  31.248  1.00  0.00     0.075 C 
BRANCH   7   9
ATOM      9  C   UNL     1      50.539 160.046  30.169  1.00  0.00     0.100 C 
BRANCH   9  10
ATOM     10  C   UNL     1      50.850 158.598  29.878  1.00  0.00    -0.042 A 
ATOM     11  C   UNL     1      49.888 157.604  30.104  1.00  0.00     0.004 A 
ATOM     12  C   UNL     1      52.103 158.230  29.365  1.00  0.00     0.004 A 
ATOM     13  C   UNL     1      50.172 156.269  29.816  1.00  0.00     0.000 A 
ATOM     14  C   UNL     1      52.383 156.893  29.078  1.00  0.00     0.000 A 
ATOM     15  C   UNL     1      51.417 155.915  29.302  1.00  0.00     0.000 A 
ENDBRANCH   9  10
ENDBRANCH   7   9
ENDBRANCH   1   7
TORSDOF 4
ENDMDL
MODEL 7
REMARK VINA RESULT:    -7.131      5.381      8.928
REMARK INTER + INTRA:          -8.896
REMARK INTER:                  -8.185
REMARK INTRA:                  -0.711
REMARK UNBOUND:                -0.097
REMARK SMILES C#CC[N@H+](C)[C@H](C)Cc1ccccc1
REMARK SMILES IDX 4 1 5 2 3 4 2 5 1 6 6 7 7 8 8 9 9 10 10 11 14 12 11 13 13 14
REMARK SMILES IDX 12 15
REMARK H PARENT 4 3
ROOT
ATOM      1  N   UNL     1      49.513 161.224  31.494  1.00  0.00    -0.325 N 
ATOM      2  C   UNL     1      48.297 160.903  32.318  1.00  0.00     0.333 C 
ATOM      3  H   UNL     1      49.346 162.161  31.101  1.00  0.00     0.348 HD
ENDROOT
BRANCH   1   4
ATOM      4  C   UNL     1      50.736 161.405  32.369  1.00  0.00     0.353 C 
ATOM      5  C   UNL     1      51.913 161.574  31.517  1.00  0.00    -0.047 C 
ATOM      6  C   UNL     1      52.881 161.717  30.819  1.00  0.00     0.010 C 
ENDBRANCH   1   4
BRANCH   1   7
ATOM      7  C   UNL     1      49.750 160.299  30.284  1.00  0.00     0.185 C 
ATOM      8  C   UNL     1      48.901 160.805  29.113  1.00  0.00     0.075 C 
BRANCH   7   9
ATOM      9  C   UNL     1      49.474 158.820  30.630  1.00  0.00     0.100 C 
BRANCH   9  10
ATOM     10  C   UNL     1      50.476 157.883  30.000  1.00  0.00    -0.042 A 
ATOM     11  C   UNL     1      50.180 156.520  29.852  1.00  0.00     0.004 A 
ATOM     12  C   UNL     1      51.711 158.366  29.545  1.00  0.00     0.004 A 
ATOM     13  C   UNL     1      51.102 155.661  29.253  1.00  0.00     0.000 A 
ATOM     14  C   UNL     1      52.629 157.502  28.946  1.00  0.00     0.000 A 
ATOM     15  C   UNL     1      52.323 156.151  28.799  1.00  0.00     0.000 A 
ENDBRANCH   9  10
ENDBRANCH   7   9
ENDBRANCH   1   7
TORSDOF 4
ENDMDL
MODEL 8
REMARK VINA RESULT:    -6.781      4.726      7.433
REMARK INTER + INTRA:          -8.464
REMARK INTER:                  -8.274
REMARK INTRA:                  -0.190
REMARK UNBOUND:                -0.097
REMARK SMILES C#CC[N@H+](C)[C@H](C)Cc1ccccc1
REMARK SMILES IDX 4 1 5 2 3 4 2 5 1 6 6 7 7 8 8 9 9 10 10 11 14 12 11 13 13 14
REMARK SMILES IDX 12 15
REMARK H PARENT 4 3
ROOT
ATOM      1  N   UNL     1      51.222 158.148  29.530  1.00  0.00    -0.325 N 
ATOM      2  C   UNL     1      51.867 159.421  30.006  1.00  0.00     0.333 C 
ATOM      3  H   UNL     1      50.933 158.327  28.558  1.00  0.00     0.348 HD
ENDROOT
BRANCH   1   4
ATOM      4  C   UNL     1      52.237 157.030  29.412  1.00  0.00     0.353 C 
ATOM      5  C   UNL     1      52.628 156.884  28.010  1.00  0.00    -0.047 C 
ATOM      6  C   UNL     1      52.953 156.765  26.860  1.00  0.00     0.010 C 
ENDBRANCH   1   4
BRANCH   1   7
ATOM      7  C   UNL     1      49.938 157.742  30.280  1.00  0.00     0.185 C 
ATOM      8  C   UNL     1      49.520 156.346  29.804  1.00  0.00     0.075 C 
BRANCH   7   9
ATOM      9  C   UNL     1      48.819 158.792  30.114  1.00  0.00     0.100 C 
BRANCH   9  10
ATOM     10  C   UNL     1      48.834 159.831  31.208  1.00  0.00    -0.042 A 
ATOM     11  C   UNL     1      48.475 161.158  30.935  1.00  0.00     0.004 A 
ATOM     12  C   UNL     1      49.196 159.478  32.517  1.00  0.00     0.004 A 
ATOM     13  C   UNL     1      48.472 162.112  31.953  1.00  0.00     0.000 A 
ATOM     14  C   UNL     1      49.191 160.435  33.533  1.00  0.00     0.000 A 
ATOM     15  C   UNL     1      48.828 161.751  33.250  1.00  0.00     0.000 A 
ENDBRANCH   9  10
ENDBRANCH   7   9
ENDBRANCH   1   7
TORSDOF 4
ENDMDL
MODEL 9
REMARK VINA RESULT:    -6.746      4.897      9.106
REMARK INTER + INTRA:          -8.421
REMARK INTER:                  -7.966
REMARK INTRA:                  -0.455
REMARK UNBOUND:                -0.097
REMARK SMILES C#CC[N@H+](C)[C@H](C)Cc1ccccc1
REMARK SMILES IDX 4 1 5 2 3 4 2 5 1 6 6 7 7 8 8 9 9 10 10 11 14 12 11 13 13 14
REMARK SMILES IDX 12 15
REMARK H PARENT 4 3
ROOT
ATOM      1  N   UNL     1      50.511 160.694  31.406  1.00  0.00    -0.325 N 
ATOM      2  C   UNL     1      51.901 161.250  31.555  1.00  0.00     0.333 C 
ATOM      3  H   UNL     1      50.392 160.025  32.178  1.00  0.00     0.348 HD
ENDROOT
BRANCH   1   4
ATOM      4  C   UNL     1      49.465 161.756  31.676  1.00  0.00     0.353 C 
ATOM      5  C   UNL     1      48.971 161.604  33.044  1.00  0.00    -0.047 C 
ATOM      6  C   UNL     1      48.567 161.484  34.170  1.00  0.00     0.010 C 
ENDBRANCH   1   4
BRANCH   1   7
ATOM      7  C   UNL     1      50.259 159.893  30.114  1.00  0.00     0.185 C 
ATOM      8  C   UNL     1      49.165 160.602  29.310  1.00  0.00     0.075 C 
BRANCH   7   9
ATOM      9  C   UNL     1      49.922 158.416  30.411  1.00  0.00     0.100 C 
BRANCH   9  10
ATOM     10  C   UNL     1      50.838 157.458  29.689  1.00  0.00    -0.042 A 
ATOM     11  C   UNL     1      50.551 156.086  29.656  1.00  0.00     0.004 A 
ATOM     12  C   UNL     1      51.984 157.930  29.031  1.00  0.00     0.004 A 
ATOM     13  C   UNL     1      51.390 155.206  28.971  1.00  0.00     0.000 A 
ATOM     14  C   UNL     1      52.820 157.047  28.347  1.00  0.00     0.000 A 
ATOM     15  C   UNL     1      52.522 155.686  28.317  1.00  0.00     0.000 A 
ENDBRANCH   9  10
ENDBRANCH   7   9
ENDBRANCH   1   7
TORSDOF 4
ENDMDL
