MODEL 1
REMARK VINA RESULT:    -0.594      0.000      0.000
REMARK INTER + INTRA:           0.585
REMARK INTER:                  -1.116
REMARK INTRA:                   1.701
REMARK UNBOUND:                 1.701
REMARK SMILES C[C@@H]1O[C@@H](OC[C@H]2O[C@@H](Oc3ccc(-c4oc5cc(O)cc(O)c5c(=O)c4O)cc3)[C@H](O)[C@@H](O)[C@@H]2O)[C@H](O[C@@H]2O[C@H](CO)[C@@H](O)[C@H](O)[C@H]2O)[C@H](O)[C@H]1O
REMARK SMILES IDX 5 1 4 2 2 3 3 4 52 5 50 6 37 7 1 8 53 9 51 11 38 13 39 14
REMARK SMILES IDX 40 15 48 16 41 17 46 18 44 19 49 20 42 22 43 23 47 25 45 27
REMARK SMILES IDX 6 29 7 30 8 31 35 32 9 33 33 34 31 35 36 36 10 38 11 39
REMARK SMILES IDX 12 40 30 41 13 42 29 43 14 44 15 45 16 46 27 47 17 48 25 49
REMARK SMILES IDX 18 50 24 51 26 52 19 53 22 54 21 55 28 56 20 58 23 60 34 62
REMARK SMILES IDX 32 64
REMARK H PARENT 53 10 51 12 49 21 43 24 47 26 45 28 36 37 28 57 20 59 23 61
REMARK H PARENT 34 63 32 65
ROOT
ATOM      1  O   UNL     1      52.690 161.643  32.516  1.00  0.00    -0.347 OA
ENDROOT
BRANCH   1   2
ATOM      2  C   UNL     1      53.391 162.054  31.337  1.00  0.00     0.282 C 
ATOM      3  C   UNL     1      53.816 160.035  30.160  1.00  0.00     0.150 C 
ATOM      4  O   UNL     1      53.004 161.203  30.252  1.00  0.00    -0.344 OA
ATOM      5  C   UNL     1      55.222 160.427  29.678  1.00  0.00     0.174 C 
ATOM      6  C   UNL     1      55.729 161.698  30.384  1.00  0.00     0.180 C 
ATOM      7  C   UNL     1      54.914 162.032  31.640  1.00  0.00     0.209 C 
ATOM      8  C   UNL     1      53.147 159.069  29.188  1.00  0.00     0.041 C 
BRANCH   5   9
ATOM      9  O   UNL     1      56.124 159.342  29.924  1.00  0.00    -0.388 OA
ATOM     10  H   UNL     1      55.793 158.875  30.713  1.00  0.00     0.211 HD
ENDBRANCH   5   9
BRANCH   6  11
ATOM     11  O   UNL     1      55.708 162.805  29.466  1.00  0.00    -0.387 OA
ATOM     12  H   UNL     1      56.036 163.576  29.977  1.00  0.00     0.211 HD
ENDBRANCH   6  11
BRANCH   7  13
ATOM     13  O   UNL     1      55.360 163.329  32.099  1.00  0.00    -0.338 OA
BRANCH  13  14
ATOM     14  C   UNL     1      56.170 163.266  33.276  1.00  0.00     0.282 C 
ATOM     15  O   UNL     1      57.153 164.296  33.279  1.00  0.00    -0.341 OA
ATOM     16  C   UNL     1      56.853 161.884  33.279  1.00  0.00     0.202 C 
ATOM     17  C   UNL     1      57.966 164.267  34.459  1.00  0.00     0.178 C 
ATOM     18  C   UNL     1      57.799 161.774  34.472  1.00  0.00     0.179 C 
ATOM     19  C   UNL     1      58.769 162.956  34.506  1.00  0.00     0.177 C 
BRANCH  16  20
ATOM     20  O   UNL     1      55.900 160.813  33.351  1.00  0.00    -0.385 OA
ATOM     21  H   UNL     1      56.100 160.235  32.583  1.00  0.00     0.211 HD
ENDBRANCH  16  20
BRANCH  17  22
ATOM     22  C   UNL     1      58.896 165.488  34.475  1.00  0.00     0.191 C 
BRANCH  22  23
ATOM     23  O   UNL     1      60.264 165.110  34.339  1.00  0.00    -0.394 OA
ATOM     24  H   UNL     1      60.791 165.934  34.409  1.00  0.00     0.210 HD
ENDBRANCH  22  23
ENDBRANCH  17  22
BRANCH  18  25
ATOM     25  O   UNL     1      58.551 160.551  34.400  1.00  0.00    -0.387 OA
ATOM     26  H   UNL     1      59.458 160.828  34.158  1.00  0.00     0.211 HD
ENDBRANCH  18  25
BRANCH  19  27
ATOM     27  O   UNL     1      59.576 162.878  35.687  1.00  0.00    -0.387 OA
ATOM     28  H   UNL     1      59.140 163.478  36.328  1.00  0.00     0.211 HD
ENDBRANCH  19  27
ENDBRANCH  13  14
ENDBRANCH   7  13
ENDBRANCH   1   2
BRANCH   1  29
ATOM     29  C   UNL     1      51.355 162.159  32.591  1.00  0.00     0.198 C 
BRANCH  29  30
ATOM     30  C   UNL     1      50.431 161.418  31.610  1.00  0.00     0.180 C 
ATOM     31  O   UNL     1      50.612 160.007  31.752  1.00  0.00    -0.332 OA
ATOM     32  C   UNL     1      48.952 161.722  31.896  1.00  0.00     0.177 C 
ATOM     33  C   UNL     1      50.068 159.268  30.649  1.00  0.00     0.339 C 
ATOM     34  C   UNL     1      48.028 160.685  31.214  1.00  0.00     0.180 C 
ATOM     35  C   UNL     1      48.742 159.878  30.115  1.00  0.00     0.214 C 
BRANCH  32  36
ATOM     36  O   UNL     1      48.635 163.044  31.455  1.00  0.00    -0.387 OA
ATOM     37  H   UNL     1      47.719 163.026  31.124  1.00  0.00     0.211 HD
ENDBRANCH  32  36
BRANCH  33  38
ATOM     38  O   UNL     1      49.774 157.924  31.083  1.00  0.00    -0.462 OA
BRANCH  38  39
ATOM     39  C   UNL     1      50.297 157.014  30.204  1.00  0.00     0.123 A 
ATOM     40  C   UNL     1      49.471 156.065  29.608  1.00  0.00     0.047 A 
ATOM     41  C   UNL     1      51.649 157.082  29.883  1.00  0.00     0.047 A 
ATOM     42  C   UNL     1      50.018 155.130  28.729  1.00  0.00     0.016 A 
ATOM     43  C   UNL     1      52.195 156.146  29.002  1.00  0.00     0.016 A 
ATOM     44  C   UNL     1      51.389 155.147  28.434  1.00  0.00     0.021 A 
BRANCH  44  45
ATOM     45  C   UNL     1      51.976 154.150  27.527  1.00  0.00     0.180 A 
ATOM     46  O   UNL     1      52.706 154.714  26.491  1.00  0.00    -0.452 OA
ATOM     47  C   UNL     1      51.819 152.828  27.714  1.00  0.00     0.208 A 
ATOM     48  C   UNL     1      53.292 153.882  25.569  1.00  0.00     0.146 A 
ATOM     49  C   UNL     1      52.439 151.902  26.740  1.00  0.00     0.238 A 
ATOM     50  C   UNL     1      54.004 154.488  24.534  1.00  0.00     0.094 A 
ATOM     51  C   UNL     1      53.198 152.493  25.635  1.00  0.00     0.111 A 
ATOM     52  O   UNL     1      52.307 150.687  26.870  1.00  0.00    -0.285 OA
ATOM     53  C   UNL     1      54.619 153.690  23.573  1.00  0.00     0.123 A 
ATOM     54  C   UNL     1      53.820 151.702  24.665  1.00  0.00     0.134 A 
ATOM     55  C   UNL     1      54.532 152.301  23.631  1.00  0.00     0.093 A 
BRANCH  47  56
ATOM     56  O   UNL     1      51.124 152.266  28.774  1.00  0.00    -0.502 OA
ATOM     57  H   UNL     1      50.245 152.708  28.751  1.00  0.00     0.293 HD
ENDBRANCH  47  56
BRANCH  53  58
ATOM     58  O   UNL     1      55.326 154.237  22.544  1.00  0.00    -0.508 OA
ATOM     59  H   UNL     1      56.270 154.039  22.658  1.00  0.00     0.293 HD
ENDBRANCH  53  58
BRANCH  54  60
ATOM     60  O   UNL     1      53.768 150.333  24.671  1.00  0.00    -0.507 OA
ATOM     61  H   UNL     1      54.444 149.996  25.297  1.00  0.00     0.293 HD
ENDBRANCH  54  60
ENDBRANCH  44  45
ENDBRANCH  38  39
ENDBRANCH  33  38
BRANCH  34  62
ATOM     62  O   UNL     1      47.473 159.805  32.201  1.00  0.00    -0.387 OA
ATOM     63  H   UNL     1      46.814 159.231  31.761  1.00  0.00     0.211 HD
ENDBRANCH  34  62
BRANCH  35  64
ATOM     64  O   UNL     1      49.022 160.720  28.984  1.00  0.00    -0.384 OA
ATOM     65  H   UNL     1      49.948 161.016  29.054  1.00  0.00     0.211 HD
ENDBRANCH  35  64
ENDBRANCH  29  30
ENDBRANCH   1  29
TORSDOF 21
ENDMDL
MODEL 2
REMARK VINA RESULT:    -0.544      0.788      1.986
REMARK INTER + INTRA:           0.680
REMARK INTER:                  -2.345
REMARK INTRA:                   3.024
REMARK UNBOUND:                 1.701
REMARK SMILES C[C@@H]1O[C@@H](OC[C@H]2O[C@@H](Oc3ccc(-c4oc5cc(O)cc(O)c5c(=O)c4O)cc3)[C@H](O)[C@@H](O)[C@@H]2O)[C@H](O[C@@H]2O[C@H](CO)[C@@H](O)[C@H](O)[C@H]2O)[C@H](O)[C@H]1O
REMARK SMILES IDX 5 1 4 2 2 3 3 4 52 5 50 6 37 7 1 8 53 9 51 11 38 13 39 14
REMARK SMILES IDX 40 15 48 16 41 17 46 18 44 19 49 20 42 22 43 23 47 25 45 27
REMARK SMILES IDX 6 29 7 30 8 31 35 32 9 33 33 34 31 35 36 36 10 38 11 39
REMARK SMILES IDX 12 40 30 41 13 42 29 43 14 44 15 45 16 46 27 47 17 48 25 49
REMARK SMILES IDX 18 50 24 51 26 52 19 53 22 54 21 55 28 56 20 58 23 60 34 62
REMARK SMILES IDX 32 64
REMARK H PARENT 53 10 51 12 49 21 43 24 47 26 45 28 36 37 28 57 20 59 23 61
REMARK H PARENT 34 63 32 65
ROOT
ATOM      1  O   UNL     1      52.680 161.622  32.519  1.00  0.00    -0.347 OA
ENDROOT
BRANCH   1   2
ATOM      2  C   UNL     1      53.401 162.077  31.369  1.00  0.00     0.282 C 
ATOM      3  C   UNL     1      53.879 160.099  30.143  1.00  0.00     0.150 C 
ATOM      4  O   UNL     1      53.049 161.253  30.251  1.00  0.00    -0.344 OA
ATOM      5  C   UNL     1      55.291 160.523  29.705  1.00  0.00     0.174 C 
ATOM      6  C   UNL     1      55.764 161.780  30.458  1.00  0.00     0.180 C 
ATOM      7  C   UNL     1      54.917 162.065  31.706  1.00  0.00     0.209 C 
ATOM      8  C   UNL     1      53.245 159.154  29.128  1.00  0.00     0.041 C 
BRANCH   5   9
ATOM      9  O   UNL     1      56.201 159.443  29.939  1.00  0.00    -0.388 OA
ATOM     10  H   UNL     1      55.683 158.722  30.342  1.00  0.00     0.211 HD
ENDBRANCH   5   9
BRANCH   6  11
ATOM     11  O   UNL     1      55.749 162.912  29.574  1.00  0.00    -0.387 OA
ATOM     12  H   UNL     1      56.640 163.317  29.649  1.00  0.00     0.211 HD
ENDBRANCH   6  11
BRANCH   7  13
ATOM     13  O   UNL     1      55.336 163.353  32.212  1.00  0.00    -0.338 OA
BRANCH  13  14
ATOM     14  C   UNL     1      56.186 163.263  33.359  1.00  0.00     0.282 C 
ATOM     15  O   UNL     1      57.170 164.293  33.351  1.00  0.00    -0.341 OA
ATOM     16  C   UNL     1      56.867 161.882  33.305  1.00  0.00     0.202 C 
ATOM     17  C   UNL     1      58.023 164.237  34.501  1.00  0.00     0.178 C 
ATOM     18  C   UNL     1      57.854 161.743  34.461  1.00  0.00     0.179 C 
ATOM     19  C   UNL     1      58.825 162.924  34.489  1.00  0.00     0.177 C 
BRANCH  16  20
ATOM     20  O   UNL     1      55.916 160.809  33.385  1.00  0.00    -0.385 OA
ATOM     21  H   UNL     1      55.264 160.985  32.673  1.00  0.00     0.211 HD
ENDBRANCH  16  20
BRANCH  17  22
ATOM     22  C   UNL     1      58.955 165.456  34.513  1.00  0.00     0.191 C 
BRANCH  22  23
ATOM     23  O   UNL     1      60.318 165.080  34.331  1.00  0.00    -0.394 OA
ATOM     24  H   UNL     1      60.378 164.126  34.553  1.00  0.00     0.210 HD
ENDBRANCH  22  23
ENDBRANCH  17  22
BRANCH  18  25
ATOM     25  O   UNL     1      58.602 160.522  34.335  1.00  0.00    -0.387 OA
ATOM     26  H   UNL     1      59.540 160.798  34.379  1.00  0.00     0.211 HD
ENDBRANCH  18  25
BRANCH  19  27
ATOM     27  O   UNL     1      59.674 162.818  35.639  1.00  0.00    -0.387 OA
ATOM     28  H   UNL     1      59.771 161.854  35.790  1.00  0.00     0.211 HD
ENDBRANCH  19  27
ENDBRANCH  13  14
ENDBRANCH   7  13
ENDBRANCH   1   2
BRANCH   1  29
ATOM     29  C   UNL     1      51.363 162.179  32.620  1.00  0.00     0.198 C 
BRANCH  29  30
ATOM     30  C   UNL     1      50.404 161.484  31.639  1.00  0.00     0.180 C 
ATOM     31  O   UNL     1      50.625 160.072  31.669  1.00  0.00    -0.332 OA
ATOM     32  C   UNL     1      48.936 161.727  32.025  1.00  0.00     0.177 C 
ATOM     33  C   UNL     1      50.038 159.399  30.545  1.00  0.00     0.339 C 
ATOM     34  C   UNL     1      48.001 160.716  31.320  1.00  0.00     0.180 C 
ATOM     35  C   UNL     1      48.671 160.009  30.129  1.00  0.00     0.214 C 
BRANCH  32  36
ATOM     36  O   UNL     1      48.564 163.068  31.698  1.00  0.00    -0.387 OA
ATOM     37  H   UNL     1      48.875 163.240  30.791  1.00  0.00     0.211 HD
ENDBRANCH  32  36
BRANCH  33  38
ATOM     38  O   UNL     1      49.801 158.020  30.896  1.00  0.00    -0.462 OA
BRANCH  38  39
ATOM     39  C   UNL     1      50.438 157.187  30.016  1.00  0.00     0.123 A 
ATOM     40  C   UNL     1      51.759 157.435  29.653  1.00  0.00     0.047 A 
ATOM     41  C   UNL     1      49.764 156.070  29.531  1.00  0.00     0.047 A 
ATOM     42  C   UNL     1      52.393 156.592  28.741  1.00  0.00     0.016 A 
ATOM     43  C   UNL     1      50.401 155.226  28.618  1.00  0.00     0.016 A 
ATOM     44  C   UNL     1      51.713 155.492  28.198  1.00  0.00     0.021 A 
BRANCH  44  45
ATOM     45  C   UNL     1      52.368 154.612  27.217  1.00  0.00     0.180 A 
ATOM     46  O   UNL     1      52.000 153.280  27.345  1.00  0.00    -0.452 OA
ATOM     47  C   UNL     1      53.222 155.079  26.290  1.00  0.00     0.208 A 
ATOM     48  C   UNL     1      52.557 152.359  26.492  1.00  0.00     0.146 A 
ATOM     49  C   UNL     1      53.840 154.114  25.354  1.00  0.00     0.238 A 
ATOM     50  C   UNL     1      52.173 151.029  26.661  1.00  0.00     0.094 A 
ATOM     51  C   UNL     1      53.467 152.704  25.494  1.00  0.00     0.111 A 
ATOM     52  O   UNL     1      54.635 154.501  24.501  1.00  0.00    -0.285 OA
ATOM     53  C   UNL     1      52.707 150.054  25.823  1.00  0.00     0.123 A 
ATOM     54  C   UNL     1      53.996 151.717  24.657  1.00  0.00     0.134 A 
ATOM     55  C   UNL     1      53.616 150.389  24.821  1.00  0.00     0.093 A 
BRANCH  47  56
ATOM     56  O   UNL     1      53.556 156.417  26.139  1.00  0.00    -0.502 OA
ATOM     57  H   UNL     1      53.994 156.460  25.258  1.00  0.00     0.293 HD
ENDBRANCH  47  56
BRANCH  53  58
ATOM     58  O   UNL     1      52.362 148.742  25.950  1.00  0.00    -0.508 OA
ATOM     59  H   UNL     1      52.590 148.433  26.842  1.00  0.00     0.293 HD
ENDBRANCH  53  58
BRANCH  54  60
ATOM     60  O   UNL     1      54.892 151.988  23.657  1.00  0.00    -0.507 OA
ATOM     61  H   UNL     1      55.801 151.867  24.008  1.00  0.00     0.293 HD
ENDBRANCH  54  60
ENDBRANCH  44  45
ENDBRANCH  38  39
ENDBRANCH  33  38
BRANCH  34  62
ATOM     62  O   UNL     1      47.522 159.754  32.269  1.00  0.00    -0.387 OA
ATOM     63  H   UNL     1      46.543 159.766  32.248  1.00  0.00     0.211 HD
ENDBRANCH  34  62
BRANCH  35  64
ATOM     64  O   UNL     1      48.868 160.937  29.049  1.00  0.00    -0.384 OA
ATOM     65  H   UNL     1      49.102 160.425  28.253  1.00  0.00     0.211 HD
ENDBRANCH  35  64
ENDBRANCH  29  30
ENDBRANCH   1  29
TORSDOF 21
ENDMDL
MODEL 3
REMARK VINA RESULT:    -0.010      1.915     11.912
REMARK INTER + INTRA:           1.682
REMARK INTER:                   0.226
REMARK INTRA:                   1.456
REMARK UNBOUND:                 1.701
REMARK SMILES C[C@@H]1O[C@@H](OC[C@H]2O[C@@H](Oc3ccc(-c4oc5cc(O)cc(O)c5c(=O)c4O)cc3)[C@H](O)[C@@H](O)[C@@H]2O)[C@H](O[C@@H]2O[C@H](CO)[C@@H](O)[C@H](O)[C@H]2O)[C@H](O)[C@H]1O
REMARK SMILES IDX 5 1 4 2 2 3 3 4 52 5 50 6 37 7 1 8 53 9 51 11 38 13 39 14
REMARK SMILES IDX 40 15 48 16 41 17 46 18 44 19 49 20 42 22 43 23 47 25 45 27
REMARK SMILES IDX 6 29 7 30 8 31 35 32 9 33 33 34 31 35 36 36 10 38 11 39
REMARK SMILES IDX 12 40 30 41 13 42 29 43 14 44 15 45 16 46 27 47 17 48 25 49
REMARK SMILES IDX 18 50 24 51 26 52 19 53 22 54 21 55 28 56 20 58 23 60 34 62
REMARK SMILES IDX 32 64
REMARK H PARENT 53 10 51 12 49 21 43 24 47 26 45 28 36 37 28 57 20 59 23 61
REMARK H PARENT 34 63 32 65
ROOT
ATOM      1  O   UNL     1      51.936 157.485  27.937  1.00  0.00    -0.347 OA
ENDROOT
BRANCH   1   2
ATOM      2  C   UNL     1      51.288 156.232  27.689  1.00  0.00     0.282 C 
ATOM      3  C   UNL     1      51.551 155.013  29.710  1.00  0.00     0.150 C 
ATOM      4  O   UNL     1      50.668 155.787  28.901  1.00  0.00    -0.344 OA
ATOM      5  C   UNL     1      51.794 153.650  29.040  1.00  0.00     0.174 C 
ATOM      6  C   UNL     1      52.022 153.796  27.525  1.00  0.00     0.180 C 
ATOM      7  C   UNL     1      52.340 155.241  27.119  1.00  0.00     0.209 C 
ATOM      8  C   UNL     1      50.910 154.847  31.084  1.00  0.00     0.041 C 
BRANCH   5   9
ATOM      9  O   UNL     1      52.932 153.024  29.646  1.00  0.00    -0.388 OA
ATOM     10  H   UNL     1      52.736 152.948  30.598  1.00  0.00     0.211 HD
ENDBRANCH   5   9
BRANCH   6  11
ATOM     11  O   UNL     1      50.869 153.319  26.811  1.00  0.00    -0.387 OA
ATOM     12  H   UNL     1      50.762 153.927  26.048  1.00  0.00     0.211 HD
ENDBRANCH   6  11
BRANCH   7  13
ATOM     13  O   UNL     1      52.346 155.281  25.674  1.00  0.00    -0.338 OA
BRANCH  13  14
ATOM     14  C   UNL     1      53.122 154.235  25.081  1.00  0.00     0.282 C 
ATOM     15  O   UNL     1      52.801 152.971  25.652  1.00  0.00    -0.341 OA
ATOM     16  C   UNL     1      54.603 154.572  25.342  1.00  0.00     0.202 C 
ATOM     17  C   UNL     1      53.552 151.902  25.061  1.00  0.00     0.178 C 
ATOM     18  C   UNL     1      55.493 153.455  24.803  1.00  0.00     0.179 C 
ATOM     19  C   UNL     1      55.049 152.097  25.350  1.00  0.00     0.177 C 
BRANCH  16  20
ATOM     20  O   UNL     1      54.992 155.806  24.720  1.00  0.00    -0.385 OA
ATOM     21  H   UNL     1      54.566 155.798  23.836  1.00  0.00     0.211 HD
ENDBRANCH  16  20
BRANCH  17  22
ATOM     22  C   UNL     1      53.052 150.558  25.606  1.00  0.00     0.191 C 
BRANCH  22  23
ATOM     23  O   UNL     1      52.069 150.734  26.623  1.00  0.00    -0.394 OA
ATOM     24  H   UNL     1      51.334 150.119  26.413  1.00  0.00     0.210 HD
ENDBRANCH  22  23
ENDBRANCH  17  22
BRANCH  18  25
ATOM     25  O   UNL     1      56.863 153.686  25.173  1.00  0.00    -0.387 OA
ATOM     26  H   UNL     1      56.957 153.273  26.055  1.00  0.00     0.211 HD
ENDBRANCH  18  25
BRANCH  19  27
ATOM     27  O   UNL     1      55.838 151.061  24.752  1.00  0.00    -0.387 OA
ATOM     28  H   UNL     1      55.189 150.489  24.289  1.00  0.00     0.211 HD
ENDBRANCH  19  27
ENDBRANCH  13  14
ENDBRANCH   7  13
ENDBRANCH   1   2
BRANCH   1  29
ATOM     29  C   UNL     1      52.609 157.535  29.201  1.00  0.00     0.198 C 
BRANCH  29  30
ATOM     30  C   UNL     1      52.082 158.705  30.050  1.00  0.00     0.180 C 
ATOM     31  O   UNL     1      53.038 159.768  30.048  1.00  0.00    -0.332 OA
ATOM     32  C   UNL     1      50.770 159.264  29.479  1.00  0.00     0.177 C 
ATOM     33  C   UNL     1      52.794 160.729  31.085  1.00  0.00     0.339 C 
ATOM     34  C   UNL     1      50.466 160.667  30.056  1.00  0.00     0.180 C 
ATOM     35  C   UNL     1      51.280 160.984  31.323  1.00  0.00     0.214 C 
BRANCH  32  36
ATOM     36  O   UNL     1      49.697 158.362  29.757  1.00  0.00    -0.387 OA
ATOM     37  H   UNL     1      50.027 157.461  29.591  1.00  0.00     0.211 HD
ENDBRANCH  32  36
BRANCH  33  38
ATOM     38  O   UNL     1      53.384 161.990  30.706  1.00  0.00    -0.462 OA
BRANCH  38  39
ATOM     39  C   UNL     1      54.423 162.301  31.540  1.00  0.00     0.123 A 
ATOM     40  C   UNL     1      55.390 161.345  31.838  1.00  0.00     0.047 A 
ATOM     41  C   UNL     1      54.522 163.595  32.045  1.00  0.00     0.047 A 
ATOM     42  C   UNL     1      56.434 161.667  32.704  1.00  0.00     0.016 A 
ATOM     43  C   UNL     1      55.569 163.915  32.913  1.00  0.00     0.016 A 
ATOM     44  C   UNL     1      56.522 162.948  33.268  1.00  0.00     0.021 A 
BRANCH  44  45
ATOM     45  C   UNL     1      57.607 163.287  34.201  1.00  0.00     0.180 A 
ATOM     46  O   UNL     1      58.007 162.217  34.989  1.00  0.00    -0.452 OA
ATOM     47  C   UNL     1      58.151 164.515  34.255  1.00  0.00     0.208 A 
ATOM     48  C   UNL     1      59.006 162.415  35.910  1.00  0.00     0.146 A 
ATOM     49  C   UNL     1      59.231 164.763  35.236  1.00  0.00     0.238 A 
ATOM     50  C   UNL     1      59.368 161.318  36.693  1.00  0.00     0.094 A 
ATOM     51  C   UNL     1      59.647 163.641  36.081  1.00  0.00     0.111 A 
ATOM     52  O   UNL     1      59.745 165.876  35.323  1.00  0.00    -0.285 OA
ATOM     53  C   UNL     1      60.376 161.465  37.642  1.00  0.00     0.123 A 
ATOM     54  C   UNL     1      60.658 163.775  37.036  1.00  0.00     0.134 A 
ATOM     55  C   UNL     1      61.024 162.685  37.819  1.00  0.00     0.093 A 
BRANCH  47  56
ATOM     56  O   UNL     1      57.779 165.571  33.437  1.00  0.00    -0.502 OA
ATOM     57  H   UNL     1      58.299 166.336  33.774  1.00  0.00     0.293 HD
ENDBRANCH  47  56
BRANCH  53  58
ATOM     58  O   UNL     1      60.765 160.422  38.430  1.00  0.00    -0.508 OA
ATOM     59  H   UNL     1      61.438 160.727  39.061  1.00  0.00     0.293 HD
ENDBRANCH  53  58
BRANCH  54  60
ATOM     60  O   UNL     1      61.328 164.949  37.254  1.00  0.00    -0.507 OA
ATOM     61  H   UNL     1      61.222 165.524  36.465  1.00  0.00     0.293 HD
ENDBRANCH  54  60
ENDBRANCH  44  45
ENDBRANCH  38  39
ENDBRANCH  33  38
BRANCH  34  62
ATOM     62  O   UNL     1      50.692 161.666  29.052  1.00  0.00    -0.387 OA
ATOM     63  H   UNL     1      50.587 162.546  29.468  1.00  0.00     0.211 HD
ENDBRANCH  34  62
BRANCH  35  64
ATOM     64  O   UNL     1      50.824 160.175  32.421  1.00  0.00    -0.384 OA
ATOM     65  H   UNL     1      49.956 160.518  32.704  1.00  0.00     0.211 HD
ENDBRANCH  35  64
ENDBRANCH  29  30
ENDBRANCH   1  29
TORSDOF 21
ENDMDL
MODEL 4
REMARK VINA RESULT:     1.493      1.669     11.410
REMARK INTER + INTRA:           4.503
REMARK INTER:                   3.385
REMARK INTRA:                   1.118
REMARK UNBOUND:                 1.701
REMARK SMILES C[C@@H]1O[C@@H](OC[C@H]2O[C@@H](Oc3ccc(-c4oc5cc(O)cc(O)c5c(=O)c4O)cc3)[C@H](O)[C@@H](O)[C@@H]2O)[C@H](O[C@@H]2O[C@H](CO)[C@@H](O)[C@H](O)[C@H]2O)[C@H](O)[C@H]1O
REMARK SMILES IDX 5 1 4 2 2 3 3 4 52 5 50 6 37 7 1 8 53 9 51 11 38 13 39 14
REMARK SMILES IDX 40 15 48 16 41 17 46 18 44 19 49 20 42 22 43 23 47 25 45 27
REMARK SMILES IDX 6 29 7 30 8 31 35 32 9 33 33 34 31 35 36 36 10 38 11 39
REMARK SMILES IDX 12 40 30 41 13 42 29 43 14 44 15 45 16 46 27 47 17 48 25 49
REMARK SMILES IDX 18 50 24 51 26 52 19 53 22 54 21 55 28 56 20 58 23 60 34 62
REMARK SMILES IDX 32 64
REMARK H PARENT 53 10 51 12 49 21 43 24 47 26 45 28 36 37 28 57 20 59 23 61
REMARK H PARENT 34 63 32 65
ROOT
ATOM      1  O   UNL     1      50.539 156.578  28.938  1.00  0.00    -0.347 OA
ENDROOT
BRANCH   1   2
ATOM      2  C   UNL     1      51.778 155.889  28.737  1.00  0.00     0.282 C 
ATOM      3  C   UNL     1      53.320 157.596  28.143  1.00  0.00     0.150 C 
ATOM      4  O   UNL     1      52.850 156.733  29.176  1.00  0.00    -0.344 OA
ATOM      5  C   UNL     1      54.074 156.766  27.090  1.00  0.00     0.174 C 
ATOM      6  C   UNL     1      53.331 155.459  26.761  1.00  0.00     0.180 C 
ATOM      7  C   UNL     1      51.874 155.478  27.242  1.00  0.00     0.209 C 
ATOM      8  C   UNL     1      54.231 158.641  28.778  1.00  0.00     0.041 C 
BRANCH   5   9
ATOM      9  O   UNL     1      54.232 157.549  25.900  1.00  0.00    -0.388 OA
ATOM     10  H   UNL     1      54.284 156.921  25.156  1.00  0.00     0.211 HD
ENDBRANCH   5   9
BRANCH   6  11
ATOM     11  O   UNL     1      54.032 154.343  27.336  1.00  0.00    -0.387 OA
ATOM     12  H   UNL     1      54.089 154.535  28.297  1.00  0.00     0.211 HD
ENDBRANCH   6  11
BRANCH   7  13
ATOM     13  O   UNL     1      51.349 154.146  27.046  1.00  0.00    -0.338 OA
BRANCH  13  14
ATOM     14  C   UNL     1      52.336 153.203  26.618  1.00  0.00     0.282 C 
ATOM     15  O   UNL     1      52.657 153.384  25.243  1.00  0.00    -0.341 OA
ATOM     16  C   UNL     1      51.743 151.799  26.843  1.00  0.00     0.202 C 
ATOM     17  C   UNL     1      53.659 152.463  24.794  1.00  0.00     0.178 C 
ATOM     18  C   UNL     1      52.715 150.737  26.334  1.00  0.00     0.179 C 
ATOM     19  C   UNL     1      53.124 151.025  24.889  1.00  0.00     0.177 C 
BRANCH  16  20
ATOM     20  O   UNL     1      51.473 151.544  28.230  1.00  0.00    -0.385 OA
ATOM     21  H   UNL     1      52.353 151.443  28.653  1.00  0.00     0.211 HD
ENDBRANCH  16  20
BRANCH  17  22
ATOM     22  C   UNL     1      54.070 152.808  23.356  1.00  0.00     0.191 C 
BRANCH  22  23
ATOM     23  O   UNL     1      55.201 153.675  23.325  1.00  0.00    -0.394 OA
ATOM     24  H   UNL     1      55.853 153.308  23.960  1.00  0.00     0.210 HD
ENDBRANCH  22  23
ENDBRANCH  17  22
BRANCH  18  25
ATOM     25  O   UNL     1      52.110 149.435  26.401  1.00  0.00    -0.387 OA
ATOM     26  H   UNL     1      52.631 148.950  27.073  1.00  0.00     0.211 HD
ENDBRANCH  18  25
BRANCH  19  27
ATOM     27  O   UNL     1      54.108 150.070  24.472  1.00  0.00    -0.387 OA
ATOM     28  H   UNL     1      53.594 149.273  24.225  1.00  0.00     0.211 HD
ENDBRANCH  19  27
ENDBRANCH  13  14
ENDBRANCH   7  13
ENDBRANCH   1   2
BRANCH   1  29
ATOM     29  C   UNL     1      50.198 156.742  30.320  1.00  0.00     0.198 C 
BRANCH  29  30
ATOM     30  C   UNL     1      50.133 158.234  30.689  1.00  0.00     0.180 C 
ATOM     31  O   UNL     1      51.382 158.859  30.385  1.00  0.00    -0.332 OA
ATOM     32  C   UNL     1      49.046 158.962  29.884  1.00  0.00     0.177 C 
ATOM     33  C   UNL     1      51.526 160.138  31.019  1.00  0.00     0.339 C 
ATOM     34  C   UNL     1      49.251 160.495  29.932  1.00  0.00     0.180 C 
ATOM     35  C   UNL     1      50.195 160.938  31.064  1.00  0.00     0.214 C 
BRANCH  32  36
ATOM     36  O   UNL     1      47.754 158.611  30.385  1.00  0.00    -0.387 OA
ATOM     37  H   UNL     1      47.138 158.629  29.630  1.00  0.00     0.211 HD
ENDBRANCH  32  36
BRANCH  33  38
ATOM     38  O   UNL     1      52.473 160.929  30.271  1.00  0.00    -0.462 OA
BRANCH  38  39
ATOM     39  C   UNL     1      53.512 161.316  31.075  1.00  0.00     0.123 A 
ATOM     40  C   UNL     1      53.541 160.931  32.412  1.00  0.00     0.047 A 
ATOM     41  C   UNL     1      54.555 162.056  30.525  1.00  0.00     0.047 A 
ATOM     42  C   UNL     1      54.593 161.347  33.227  1.00  0.00     0.016 A 
ATOM     43  C   UNL     1      55.609 162.471  31.342  1.00  0.00     0.016 A 
ATOM     44  C   UNL     1      55.626 162.139  32.706  1.00  0.00     0.021 A 
BRANCH  44  45
ATOM     45  C   UNL     1      56.727 162.601  33.565  1.00  0.00     0.180 A 
ATOM     46  O   UNL     1      57.245 161.602  34.377  1.00  0.00    -0.452 OA
ATOM     47  C   UNL     1      57.178 163.867  33.536  1.00  0.00     0.208 A 
ATOM     48  C   UNL     1      58.270 161.917  35.235  1.00  0.00     0.146 A 
ATOM     49  C   UNL     1      58.283 164.241  34.447  1.00  0.00     0.238 A 
ATOM     50  C   UNL     1      58.753 160.889  36.045  1.00  0.00     0.094 A 
ATOM     51  C   UNL     1      58.824 163.194  35.317  1.00  0.00     0.111 A 
ATOM     52  O   UNL     1      58.714 165.392  34.458  1.00  0.00    -0.285 OA
ATOM     53  C   UNL     1      59.793 161.154  36.932  1.00  0.00     0.123 A 
ATOM     54  C   UNL     1      59.868 163.448  36.211  1.00  0.00     0.134 A 
ATOM     55  C   UNL     1      60.354 162.426  37.021  1.00  0.00     0.093 A 
BRANCH  47  56
ATOM     56  O   UNL     1      56.687 164.853  32.693  1.00  0.00    -0.502 OA
ATOM     57  H   UNL     1      56.598 164.405  31.821  1.00  0.00     0.293 HD
ENDBRANCH  47  56
BRANCH  53  58
ATOM     58  O   UNL     1      60.298 160.182  37.744  1.00  0.00    -0.508 OA
ATOM     59  H   UNL     1      61.092 160.516  38.192  1.00  0.00     0.293 HD
ENDBRANCH  53  58
BRANCH  54  60
ATOM     60  O   UNL     1      60.457 164.677  36.342  1.00  0.00    -0.507 OA
ATOM     61  H   UNL     1      59.849 165.267  36.837  1.00  0.00     0.293 HD
ENDBRANCH  54  60
ENDBRANCH  44  45
ENDBRANCH  38  39
ENDBRANCH  33  38
BRANCH  34  62
ATOM     62  O   UNL     1      49.734 160.962  28.666  1.00  0.00    -0.387 OA
ATOM     63  H   UNL     1      49.678 161.939  28.659  1.00  0.00     0.211 HD
ENDBRANCH  34  62
BRANCH  35  64
ATOM     64  O   UNL     1      49.563 160.746  32.341  1.00  0.00    -0.384 OA
ATOM     65  H   UNL     1      49.413 159.790  32.460  1.00  0.00     0.211 HD
ENDBRANCH  35  64
ENDBRANCH  29  30
ENDBRANCH   1  29
TORSDOF 21
ENDMDL
