MODEL 1
REMARK VINA RESULT:    -8.795      0.000      0.000
REMARK INTER + INTRA:         -13.089
REMARK INTER:                 -12.651
REMARK INTRA:                  -0.438
REMARK UNBOUND:                -0.438
REMARK SMILES O=c1c(O)c(-c2ccc(O)cc2)oc2cc(O[C@@H]3O[C@H](CO)[C@@H](O)[C@H](O)[C@H]3O)cc(O)c12
REMARK SMILES IDX 17 1 16 2 1 3 2 4 3 5 32 6 5 7 30 8 14 9 13 10 29 11 15 12
REMARK SMILES IDX 4 13 6 15 7 16 12 17 8 18 11 19 9 20 10 21 31 23 18 25 19 26
REMARK SMILES IDX 27 27 20 28 25 29 23 30 28 31 21 33 22 34 26 36 24 38
REMARK H PARENT 4 14 10 22 31 24 28 32 22 35 26 37 24 39
ROOT
ATOM      1  O   UNL     1      35.021  31.652 -16.158  1.00  0.00    -0.462 OA
ENDROOT
BRANCH   1   2
ATOM      2  C   UNL     1      35.818  30.562 -16.379  1.00  0.00     0.130 A 
ATOM      3  O   UNL     1      38.009  26.380 -18.378  1.00  0.00    -0.285 OA
ATOM      4  C   UNL     1      38.113  27.080 -17.376  1.00  0.00     0.238 A 
ATOM      5  C   UNL     1      39.152  26.709 -16.382  1.00  0.00     0.208 A 
ATOM      6  C   UNL     1      37.294  28.270 -17.074  1.00  0.00     0.111 A 
ATOM      7  C   UNL     1      39.304  27.461 -15.279  1.00  0.00     0.180 A 
ATOM      8  C   UNL     1      36.267  28.727 -17.905  1.00  0.00     0.134 A 
ATOM      9  C   UNL     1      37.568  28.964 -15.896  1.00  0.00     0.146 A 
ATOM     10  O   UNL     1      38.550  28.593 -15.010  1.00  0.00    -0.452 OA
ATOM     11  C   UNL     1      35.533  29.865 -17.556  1.00  0.00     0.093 A 
ATOM     12  C   UNL     1      36.834  30.103 -15.545  1.00  0.00     0.094 A 
BRANCH   5  13
ATOM     13  O   UNL     1      39.919  25.595 -16.678  1.00  0.00    -0.502 OA
ATOM     14  H   UNL     1      40.478  25.878 -17.434  1.00  0.00     0.293 HD
ENDBRANCH   5  13
BRANCH   7  15
ATOM     15  C   UNL     1      40.314  27.180 -14.236  1.00  0.00     0.021 A 
ATOM     16  C   UNL     1      40.099  27.516 -12.891  1.00  0.00     0.016 A 
ATOM     17  C   UNL     1      41.543  26.600 -14.594  1.00  0.00     0.016 A 
ATOM     18  C   UNL     1      41.080  27.266 -11.928  1.00  0.00     0.047 A 
ATOM     19  C   UNL     1      42.526  26.349 -13.631  1.00  0.00     0.047 A 
ATOM     20  C   UNL     1      42.283  26.684 -12.304  1.00  0.00     0.115 A 
BRANCH  20  21
ATOM     21  O   UNL     1      43.212  26.458 -11.332  1.00  0.00    -0.508 OA
ATOM     22  H   UNL     1      43.180  25.518 -11.086  1.00  0.00     0.293 HD
ENDBRANCH  20  21
ENDBRANCH   7  15
BRANCH   8  23
ATOM     23  O   UNL     1      35.960  28.077 -19.066  1.00  0.00    -0.507 OA
ATOM     24  H   UNL     1      36.384  28.516 -19.819  1.00  0.00     0.293 HD
ENDBRANCH   8  23
ENDBRANCH   1   2
BRANCH   1  25
ATOM     25  C   UNL     1      33.678  31.620 -16.673  1.00  0.00     0.339 C 
ATOM     26  O   UNL     1      33.449  32.797 -17.456  1.00  0.00    -0.332 OA
ATOM     27  C   UNL     1      32.730  31.568 -15.460  1.00  0.00     0.214 C 
ATOM     28  C   UNL     1      32.077  33.187 -17.651  1.00  0.00     0.179 C 
ATOM     29  C   UNL     1      31.266  31.497 -15.919  1.00  0.00     0.180 C 
ATOM     30  C   UNL     1      31.045  32.104 -17.310  1.00  0.00     0.177 C 
BRANCH  27  31
ATOM     31  O   UNL     1      32.988  30.435 -14.612  1.00  0.00    -0.384 OA
ATOM     32  H   UNL     1      33.947  30.445 -14.435  1.00  0.00     0.211 HD
ENDBRANCH  27  31
BRANCH  28  33
ATOM     33  C   UNL     1      31.845  34.488 -16.870  1.00  0.00     0.191 C 
BRANCH  33  34
ATOM     34  O   UNL     1      30.455  34.627 -16.573  1.00  0.00    -0.394 OA
ATOM     35  H   UNL     1      30.221  33.857 -16.016  1.00  0.00     0.210 HD
ENDBRANCH  33  34
ENDBRANCH  28  33
BRANCH  29  36
ATOM     36  O   UNL     1      30.455  32.163 -14.941  1.00  0.00    -0.387 OA
ATOM     37  H   UNL     1      30.768  33.082 -14.867  1.00  0.00     0.211 HD
ENDBRANCH  29  36
BRANCH  30  38
ATOM     38  O   UNL     1      31.161  31.059 -18.290  1.00  0.00    -0.387 OA
ATOM     39  H   UNL     1      31.954  30.533 -18.085  1.00  0.00     0.211 HD
ENDBRANCH  30  38
ENDBRANCH   1  25
TORSDOF 11
ENDMDL
MODEL 2
REMARK VINA RESULT:    -7.904      1.703      2.706
REMARK INTER + INTRA:         -11.807
REMARK INTER:                 -13.338
REMARK INTRA:                   1.531
REMARK UNBOUND:                -0.438
REMARK SMILES O=c1c(O)c(-c2ccc(O)cc2)oc2cc(O[C@@H]3O[C@H](CO)[C@@H](O)[C@H](O)[C@H]3O)cc(O)c12
REMARK SMILES IDX 17 1 16 2 1 3 2 4 3 5 32 6 5 7 30 8 14 9 13 10 29 11 15 12
REMARK SMILES IDX 4 13 6 15 7 16 12 17 8 18 11 19 9 20 10 21 31 23 18 25 19 26
REMARK SMILES IDX 27 27 20 28 25 29 23 30 28 31 21 33 22 34 26 36 24 38
REMARK H PARENT 4 14 10 22 31 24 28 32 22 35 26 37 24 39
ROOT
ATOM      1  O   UNL     1      35.420  30.314 -14.552  1.00  0.00    -0.462 OA
ENDROOT
BRANCH   1   2
ATOM      2  C   UNL     1      36.323  29.519 -15.202  1.00  0.00     0.130 A 
ATOM      3  O   UNL     1      38.775  26.681 -18.698  1.00  0.00    -0.285 OA
ATOM      4  C   UNL     1      38.922  27.027 -17.530  1.00  0.00     0.238 A 
ATOM      5  C   UNL     1      40.135  26.549 -16.819  1.00  0.00     0.208 A 
ATOM      6  C   UNL     1      37.994  27.885 -16.767  1.00  0.00     0.111 A 
ATOM      7  C   UNL     1      40.336  26.919 -15.543  1.00  0.00     0.180 A 
ATOM      8  C   UNL     1      36.804  28.391 -17.298  1.00  0.00     0.134 A 
ATOM      9  C   UNL     1      38.333  28.198 -15.451  1.00  0.00     0.146 A 
ATOM     10  O   UNL     1      39.476  27.745 -14.837  1.00  0.00    -0.452 OA
ATOM     11  C   UNL     1      35.974  29.201 -16.517  1.00  0.00     0.093 A 
ATOM     12  C   UNL     1      37.504  29.008 -14.669  1.00  0.00     0.094 A 
BRANCH   5  13
ATOM     13  O   UNL     1      41.002  25.750 -17.545  1.00  0.00    -0.502 OA
ATOM     14  H   UNL     1      41.154  26.250 -18.377  1.00  0.00     0.293 HD
ENDBRANCH   5  13
BRANCH   7  15
ATOM     15  C   UNL     1      41.515  26.504 -14.752  1.00  0.00     0.021 A 
ATOM     16  C   UNL     1      41.790  27.057 -13.493  1.00  0.00     0.016 A 
ATOM     17  C   UNL     1      42.414  25.564 -15.282  1.00  0.00     0.016 A 
ATOM     18  C   UNL     1      42.926  26.669 -12.776  1.00  0.00     0.047 A 
ATOM     19  C   UNL     1      43.551  25.174 -14.567  1.00  0.00     0.047 A 
ATOM     20  C   UNL     1      43.795  25.732 -13.317  1.00  0.00     0.115 A 
BRANCH  20  21
ATOM     21  O   UNL     1      44.891  25.382 -12.585  1.00  0.00    -0.508 OA
ATOM     22  H   UNL     1      45.664  25.364 -13.173  1.00  0.00     0.293 HD
ENDBRANCH  20  21
ENDBRANCH   7  15
BRANCH   8  23
ATOM     23  O   UNL     1      36.429  28.107 -18.580  1.00  0.00    -0.507 OA
ATOM     24  H   UNL     1      36.310  28.926 -19.085  1.00  0.00     0.293 HD
ENDBRANCH   8  23
ENDBRANCH   1   2
BRANCH   1  25
ATOM     25  C   UNL     1      34.684  31.274 -15.331  1.00  0.00     0.339 C 
ATOM     26  O   UNL     1      34.026  30.598 -16.408  1.00  0.00    -0.332 OA
ATOM     27  C   UNL     1      35.701  32.303 -15.861  1.00  0.00     0.214 C 
ATOM     28  C   UNL     1      33.649  31.401 -17.541  1.00  0.00     0.179 C 
ATOM     29  C   UNL     1      34.993  33.392 -16.680  1.00  0.00     0.180 C 
ATOM     30  C   UNL     1      33.672  32.916 -17.295  1.00  0.00     0.177 C 
BRANCH  27  31
ATOM     31  O   UNL     1      36.433  32.944 -14.801  1.00  0.00    -0.384 OA
ATOM     32  H   UNL     1      36.491  33.886 -15.045  1.00  0.00     0.211 HD
ENDBRANCH  27  31
BRANCH  28  33
ATOM     33  C   UNL     1      34.535  30.985 -18.725  1.00  0.00     0.191 C 
BRANCH  33  34
ATOM     34  O   UNL     1      34.152  29.687 -19.177  1.00  0.00    -0.394 OA
ATOM     35  H   UNL     1      34.983  29.178 -19.268  1.00  0.00     0.210 HD
ENDBRANCH  33  34
ENDBRANCH  28  33
BRANCH  29  36
ATOM     36  O   UNL     1      35.894  33.843 -17.702  1.00  0.00    -0.387 OA
ATOM     37  H   UNL     1      36.636  33.213 -17.746  1.00  0.00     0.211 HD
ENDBRANCH  29  36
BRANCH  30  38
ATOM     38  O   UNL     1      32.603  33.230 -16.386  1.00  0.00    -0.387 OA
ATOM     39  H   UNL     1      32.224  34.088 -16.645  1.00  0.00     0.211 HD
ENDBRANCH  30  38
ENDBRANCH   1  25
TORSDOF 11
ENDMDL
MODEL 3
REMARK VINA RESULT:    -7.175      1.795      9.637
REMARK INTER + INTRA:         -10.758
REMARK INTER:                 -10.712
REMARK INTRA:                  -0.046
REMARK UNBOUND:                -0.438
REMARK SMILES O=c1c(O)c(-c2ccc(O)cc2)oc2cc(O[C@@H]3O[C@H](CO)[C@@H](O)[C@H](O)[C@H]3O)cc(O)c12
REMARK SMILES IDX 17 1 16 2 1 3 2 4 3 5 32 6 5 7 30 8 14 9 13 10 29 11 15 12
REMARK SMILES IDX 4 13 6 15 7 16 12 17 8 18 11 19 9 20 10 21 31 23 18 25 19 26
REMARK SMILES IDX 27 27 20 28 25 29 23 30 28 31 21 33 22 34 26 36 24 38
REMARK H PARENT 4 14 10 22 31 24 28 32 22 35 26 37 24 39
ROOT
ATOM      1  O   UNL     1      40.056  27.418 -12.950  1.00  0.00    -0.462 OA
ENDROOT
BRANCH   1   2
ATOM      2  C   UNL     1      39.312  27.554 -14.090  1.00  0.00     0.130 A 
ATOM      3  O   UNL     1      37.234  26.887 -18.729  1.00  0.00    -0.285 OA
ATOM      4  C   UNL     1      37.163  27.683 -17.798  1.00  0.00     0.238 A 
ATOM      5  C   UNL     1      36.227  28.827 -17.941  1.00  0.00     0.208 A 
ATOM      6  C   UNL     1      37.930  27.599 -16.539  1.00  0.00     0.111 A 
ATOM      7  C   UNL     1      36.113  29.711 -16.935  1.00  0.00     0.180 A 
ATOM      8  C   UNL     1      38.862  26.591 -16.273  1.00  0.00     0.134 A 
ATOM      9  C   UNL     1      37.704  28.581 -15.576  1.00  0.00     0.146 A 
ATOM     10  O   UNL     1      36.815  29.615 -15.744  1.00  0.00    -0.452 OA
ATOM     11  C   UNL     1      39.549  26.572 -15.056  1.00  0.00     0.093 A 
ATOM     12  C   UNL     1      38.391  28.563 -14.357  1.00  0.00     0.094 A 
BRANCH   5  13
ATOM     13  O   UNL     1      35.508  28.893 -19.123  1.00  0.00    -0.502 OA
ATOM     14  H   UNL     1      36.112  29.348 -19.749  1.00  0.00     0.293 HD
ENDBRANCH   5  13
BRANCH   7  15
ATOM     15  C   UNL     1      35.204  30.876 -16.976  1.00  0.00     0.021 A 
ATOM     16  C   UNL     1      33.815  30.733 -16.838  1.00  0.00     0.016 A 
ATOM     17  C   UNL     1      35.726  32.161 -17.200  1.00  0.00     0.016 A 
ATOM     18  C   UNL     1      32.973  31.847 -16.908  1.00  0.00     0.047 A 
ATOM     19  C   UNL     1      34.885  33.276 -17.270  1.00  0.00     0.047 A 
ATOM     20  C   UNL     1      33.514  33.107 -17.122  1.00  0.00     0.115 A 
BRANCH  20  21
ATOM     21  O   UNL     1      32.656  34.166 -17.183  1.00  0.00    -0.508 OA
ATOM     22  H   UNL     1      33.177  34.985 -17.205  1.00  0.00     0.293 HD
ENDBRANCH  20  21
ENDBRANCH   7  15
BRANCH   8  23
ATOM     23  O   UNL     1      39.118  25.612 -17.189  1.00  0.00    -0.507 OA
ATOM     24  H   UNL     1      38.387  25.544 -17.823  1.00  0.00     0.293 HD
ENDBRANCH   8  23
ENDBRANCH   1   2
BRANCH   1  25
ATOM     25  C   UNL     1      41.484  27.548 -13.057  1.00  0.00     0.339 C 
ATOM     26  O   UNL     1      41.891  27.177 -14.379  1.00  0.00    -0.332 OA
ATOM     27  C   UNL     1      42.104  26.610 -12.003  1.00  0.00     0.214 C 
ATOM     28  C   UNL     1      43.265  26.783 -14.547  1.00  0.00     0.179 C 
ATOM     29  C   UNL     1      43.637  26.711 -12.023  1.00  0.00     0.180 C 
ATOM     30  C   UNL     1      44.190  27.159 -13.381  1.00  0.00     0.177 C 
BRANCH  27  31
ATOM     31  O   UNL     1      41.653  26.912 -10.671  1.00  0.00    -0.384 OA
ATOM     32  H   UNL     1      40.692  27.059 -10.739  1.00  0.00     0.211 HD
ENDBRANCH  27  31
BRANCH  28  33
ATOM     33  C   UNL     1      43.287  25.279 -14.853  1.00  0.00     0.191 C 
BRANCH  33  34
ATOM     34  O   UNL     1      44.589  24.755 -14.591  1.00  0.00    -0.394 OA
ATOM     35  H   UNL     1      45.220  25.428 -14.919  1.00  0.00     0.210 HD
ENDBRANCH  33  34
ENDBRANCH  28  33
BRANCH  29  36
ATOM     36  O   UNL     1      44.175  25.434 -11.653  1.00  0.00    -0.387 OA
ATOM     37  H   UNL     1      44.746  25.564 -10.874  1.00  0.00     0.211 HD
ENDBRANCH  29  36
BRANCH  30  38
ATOM     38  O   UNL     1      44.328  28.589 -13.371  1.00  0.00    -0.387 OA
ATOM     39  H   UNL     1      43.654  28.958 -12.773  1.00  0.00     0.211 HD
ENDBRANCH  30  38
ENDBRANCH   1  25
TORSDOF 11
ENDMDL
