MODEL 1
REMARK VINA RESULT:    -8.245      0.000      0.000
REMARK INTER + INTRA:          -9.400
REMARK INTER:                  -9.209
REMARK INTRA:                  -0.190
REMARK UNBOUND:                -0.190
REMARK SMILES C#CC[NH2+][C@@H]1CCc2ccccc21
REMARK SMILES IDX 1 1 2 2 3 3 4 4 5 7 6 8 13 9 7 10 12 11 8 12 11 13 9 14
REMARK SMILES IDX 10 15
REMARK H PARENT 4 5 4 6
ROOT
ATOM      1  C   UNL     1      31.971  29.155 -11.522  1.00  0.00     0.010 C 
ATOM      2  C   UNL     1      32.236  29.845 -12.470  1.00  0.00    -0.047 C 
ATOM      3  C   UNL     1      32.533  30.681 -13.625  1.00  0.00     0.352 C 
ENDROOT
BRANCH   3   4
ATOM      4  N   UNL     1      33.999  30.910 -13.755  1.00  0.00    -0.330 N 
ATOM      5  H   UNL     1      34.229  31.722 -13.174  1.00  0.00     0.347 HD
ATOM      6  H   UNL     1      34.469  30.114 -13.310  1.00  0.00     0.347 HD
BRANCH   4   7
ATOM      7  C   UNL     1      34.639  31.117 -15.084  1.00  0.00     0.214 C 
ATOM      8  C   UNL     1      33.650  31.104 -16.262  1.00  0.00     0.075 C 
ATOM      9  C   UNL     1      35.669  30.123 -15.523  1.00  0.00     0.012 A 
ATOM     10  C   UNL     1      34.497  30.789 -17.506  1.00  0.00     0.042 C 
ATOM     11  C   UNL     1      36.668  29.498 -14.792  1.00  0.00     0.010 A 
ATOM     12  C   UNL     1      35.575  29.935 -16.911  1.00  0.00    -0.039 A 
ATOM     13  C   UNL     1      37.547  28.645 -15.463  1.00  0.00     0.001 A 
ATOM     14  C   UNL     1      36.451  29.101 -17.584  1.00  0.00     0.004 A 
ATOM     15  C   UNL     1      37.437  28.444 -16.848  1.00  0.00     0.000 A 
ENDBRANCH   4   7
ENDBRANCH   3   4
TORSDOF 2
ENDMDL
MODEL 2
REMARK VINA RESULT:    -7.758      4.842      7.431
REMARK INTER + INTRA:          -8.856
REMARK INTER:                  -8.655
REMARK INTRA:                  -0.200
REMARK UNBOUND:                -0.190
REMARK SMILES C#CC[NH2+][C@@H]1CCc2ccccc21
REMARK SMILES IDX 1 1 2 2 3 3 4 4 5 7 6 8 13 9 7 10 12 11 8 12 11 13 9 14
REMARK SMILES IDX 10 15
REMARK H PARENT 4 5 4 6
ROOT
ATOM      1  C   UNL     1      37.077  29.086 -17.104  1.00  0.00     0.010 C 
ATOM      2  C   UNL     1      37.659  28.043 -16.973  1.00  0.00    -0.047 C 
ATOM      3  C   UNL     1      38.346  26.769 -16.821  1.00  0.00     0.352 C 
ENDROOT
BRANCH   3   4
ATOM      4  N   UNL     1      39.695  26.957 -16.218  1.00  0.00    -0.330 N 
ATOM      5  H   UNL     1      40.345  26.365 -16.745  1.00  0.00     0.347 HD
ATOM      6  H   UNL     1      39.981  27.922 -16.417  1.00  0.00     0.347 HD
BRANCH   4   7
ATOM      7  C   UNL     1      39.942  26.710 -14.770  1.00  0.00     0.214 C 
ATOM      8  C   UNL     1      39.469  27.851 -13.853  1.00  0.00     0.075 C 
ATOM      9  C   UNL     1      41.358  26.515 -14.328  1.00  0.00     0.012 A 
ATOM     10  C   UNL     1      40.260  27.682 -12.545  1.00  0.00     0.042 C 
ATOM     11  C   UNL     1      42.392  25.822 -14.941  1.00  0.00     0.010 A 
ATOM     12  C   UNL     1      41.534  27.082 -13.056  1.00  0.00    -0.039 A 
ATOM     13  C   UNL     1      43.621  25.742 -14.282  1.00  0.00     0.001 A 
ATOM     14  C   UNL     1      42.745  26.994 -12.392  1.00  0.00     0.004 A 
ATOM     15  C   UNL     1      43.797  26.327 -13.019  1.00  0.00     0.000 A 
ENDBRANCH   4   7
ENDBRANCH   3   4
TORSDOF 2
ENDMDL
MODEL 3
REMARK VINA RESULT:    -7.627      3.237      5.995
REMARK INTER + INTRA:          -8.709
REMARK INTER:                  -8.509
REMARK INTRA:                  -0.199
REMARK UNBOUND:                -0.190
REMARK SMILES C#CC[NH2+][C@@H]1CCc2ccccc21
REMARK SMILES IDX 1 1 2 2 3 3 4 4 5 7 6 8 13 9 7 10 12 11 8 12 11 13 9 14
REMARK SMILES IDX 10 15
REMARK H PARENT 4 5 4 6
ROOT
ATOM      1  C   UNL     1      42.775  26.922 -12.899  1.00  0.00     0.010 C 
ATOM      2  C   UNL     1      41.624  27.168 -12.652  1.00  0.00    -0.047 C 
ATOM      3  C   UNL     1      40.232  27.452 -12.334  1.00  0.00     0.352 C 
ENDROOT
BRANCH   3   4
ATOM      4  N   UNL     1      39.592  28.256 -13.411  1.00  0.00    -0.330 N 
ATOM      5  H   UNL     1      39.026  28.977 -12.952  1.00  0.00     0.347 HD
ATOM      6  H   UNL     1      40.341  28.763 -13.895  1.00  0.00     0.347 HD
BRANCH   4   7
ATOM      7  C   UNL     1      38.740  27.620 -14.455  1.00  0.00     0.214 C 
ATOM      8  C   UNL     1      39.537  26.941 -15.582  1.00  0.00     0.075 C 
ATOM      9  C   UNL     1      37.800  28.500 -15.218  1.00  0.00     0.012 A 
ATOM     10  C   UNL     1      38.566  26.841 -16.770  1.00  0.00     0.042 C 
ATOM     11  C   UNL     1      37.012  29.553 -14.775  1.00  0.00     0.010 A 
ATOM     12  C   UNL     1      37.712  28.052 -16.545  1.00  0.00    -0.039 A 
ATOM     13  C   UNL     1      36.166  30.181 -15.692  1.00  0.00     0.001 A 
ATOM     14  C   UNL     1      36.865  28.662 -17.455  1.00  0.00     0.004 A 
ATOM     15  C   UNL     1      36.096  29.742 -17.022  1.00  0.00     0.000 A 
ENDBRANCH   4   7
ENDBRANCH   3   4
TORSDOF 2
ENDMDL
MODEL 4
REMARK VINA RESULT:    -7.553      1.197      1.876
REMARK INTER + INTRA:          -8.626
REMARK INTER:                  -8.426
REMARK INTRA:                  -0.200
REMARK UNBOUND:                -0.190
REMARK SMILES C#CC[NH2+][C@@H]1CCc2ccccc21
REMARK SMILES IDX 1 1 2 2 3 3 4 4 5 7 6 8 13 9 7 10 12 11 8 12 11 13 9 14
REMARK SMILES IDX 10 15
REMARK H PARENT 4 5 4 6
ROOT
ATOM      1  C   UNL     1      32.658  30.035 -12.348  1.00  0.00     0.010 C 
ATOM      2  C   UNL     1      33.501  30.644 -12.951  1.00  0.00    -0.047 C 
ATOM      3  C   UNL     1      34.506  31.399 -13.685  1.00  0.00     0.352 C 
ENDROOT
BRANCH   3   4
ATOM      4  N   UNL     1      35.751  30.601 -13.861  1.00  0.00    -0.330 N 
ATOM      5  H   UNL     1      36.468  31.028 -13.266  1.00  0.00     0.347 HD
ATOM      6  H   UNL     1      35.575  29.675 -13.455  1.00  0.00     0.347 HD
BRANCH   4   7
ATOM      7  C   UNL     1      36.355  30.388 -15.205  1.00  0.00     0.214 C 
ATOM      8  C   UNL     1      35.324  30.180 -16.328  1.00  0.00     0.075 C 
ATOM      9  C   UNL     1      37.260  29.209 -15.384  1.00  0.00     0.012 A 
ATOM     10  C   UNL     1      36.084  29.465 -17.457  1.00  0.00     0.042 C 
ATOM     11  C   UNL     1      38.219  28.688 -14.527  1.00  0.00     0.010 A 
ATOM     12  C   UNL     1      37.093  28.681 -16.674  1.00  0.00    -0.039 A 
ATOM     13  C   UNL     1      38.980  27.601 -14.964  1.00  0.00     0.001 A 
ATOM     14  C   UNL     1      37.852  27.613 -17.117  1.00  0.00     0.004 A 
ATOM     15  C   UNL     1      38.794  27.064 -16.247  1.00  0.00     0.000 A 
ENDBRANCH   4   7
ENDBRANCH   3   4
TORSDOF 2
ENDMDL
MODEL 5
REMARK VINA RESULT:    -7.371      3.056      5.255
REMARK INTER + INTRA:          -8.423
REMARK INTER:                  -8.239
REMARK INTRA:                  -0.184
REMARK UNBOUND:                -0.190
REMARK SMILES C#CC[NH2+][C@@H]1CCc2ccccc21
REMARK SMILES IDX 1 1 2 2 3 3 4 4 5 7 6 8 13 9 7 10 12 11 8 12 11 13 9 14
REMARK SMILES IDX 10 15
REMARK H PARENT 4 5 4 6
ROOT
ATOM      1  C   UNL     1      34.651  30.340 -17.820  1.00  0.00     0.010 C 
ATOM      2  C   UNL     1      35.466  30.334 -16.937  1.00  0.00    -0.047 C 
ATOM      3  C   UNL     1      36.455  30.350 -15.869  1.00  0.00     0.352 C 
ENDROOT
BRANCH   3   4
ATOM      4  N   UNL     1      36.825  28.966 -15.463  1.00  0.00    -0.330 N 
ATOM      5  H   UNL     1      36.646  28.890 -14.457  1.00  0.00     0.347 HD
ATOM      6  H   UNL     1      36.153  28.332 -15.909  1.00  0.00     0.347 HD
BRANCH   4   7
ATOM      7  C   UNL     1      38.187  28.419 -15.715  1.00  0.00     0.214 C 
ATOM      8  C   UNL     1      38.197  27.137 -16.566  1.00  0.00     0.075 C 
ATOM      9  C   UNL     1      39.007  28.017 -14.529  1.00  0.00     0.012 A 
ATOM     10  C   UNL     1      39.543  26.455 -16.267  1.00  0.00     0.042 C 
ATOM     11  C   UNL     1      39.145  28.636 -13.294  1.00  0.00     0.010 A 
ATOM     12  C   UNL     1      39.774  26.887 -14.851  1.00  0.00    -0.039 A 
ATOM     13  C   UNL     1      40.031  28.080 -12.369  1.00  0.00     0.001 A 
ATOM     14  C   UNL     1      40.664  26.339 -13.943  1.00  0.00     0.004 A 
ATOM     15  C   UNL     1      40.781  26.938 -12.688  1.00  0.00     0.000 A 
ENDBRANCH   4   7
ENDBRANCH   3   4
TORSDOF 2
ENDMDL
MODEL 6
REMARK VINA RESULT:    -7.227      4.118      6.937
REMARK INTER + INTRA:          -8.263
REMARK INTER:                  -7.859
REMARK INTRA:                  -0.403
REMARK UNBOUND:                -0.190
REMARK SMILES C#CC[NH2+][C@@H]1CCc2ccccc21
REMARK SMILES IDX 1 1 2 2 3 3 4 4 5 7 6 8 13 9 7 10 12 11 8 12 11 13 9 14
REMARK SMILES IDX 10 15
REMARK H PARENT 4 5 4 6
ROOT
ATOM      1  C   UNL     1      36.863  29.323 -16.761  1.00  0.00     0.010 C 
ATOM      2  C   UNL     1      37.291  28.320 -17.267  1.00  0.00    -0.047 C 
ATOM      3  C   UNL     1      37.800  27.111 -17.899  1.00  0.00     0.352 C 
ENDROOT
BRANCH   3   4
ATOM      4  N   UNL     1      38.533  26.264 -16.918  1.00  0.00    -0.330 N 
ATOM      5  H   UNL     1      37.937  26.181 -16.088  1.00  0.00     0.347 HD
ATOM      6  H   UNL     1      38.581  25.319 -17.314  1.00  0.00     0.347 HD
BRANCH   4   7
ATOM      7  C   UNL     1      39.901  26.620 -16.451  1.00  0.00     0.214 C 
ATOM      8  C   UNL     1      40.956  25.533 -16.721  1.00  0.00     0.075 C 
ATOM      9  C   UNL     1      40.091  26.890 -14.991  1.00  0.00     0.012 A 
ATOM     10  C   UNL     1      42.102  25.819 -15.736  1.00  0.00     0.042 C 
ATOM     11  C   UNL     1      39.273  27.570 -14.100  1.00  0.00     0.010 A 
ATOM     12  C   UNL     1      41.351  26.420 -14.588  1.00  0.00    -0.039 A 
ATOM     13  C   UNL     1      39.715  27.735 -12.785  1.00  0.00     0.001 A 
ATOM     14  C   UNL     1      41.800  26.592 -13.290  1.00  0.00     0.004 A 
ATOM     15  C   UNL     1      40.967  27.246 -12.382  1.00  0.00     0.000 A 
ENDBRANCH   4   7
ENDBRANCH   3   4
TORSDOF 2
ENDMDL
MODEL 7
REMARK VINA RESULT:    -7.025      2.691      5.337
REMARK INTER + INTRA:          -8.037
REMARK INTER:                  -7.893
REMARK INTRA:                  -0.144
REMARK UNBOUND:                -0.190
REMARK SMILES C#CC[NH2+][C@@H]1CCc2ccccc21
REMARK SMILES IDX 1 1 2 2 3 3 4 4 5 7 6 8 13 9 7 10 12 11 8 12 11 13 9 14
REMARK SMILES IDX 10 15
REMARK H PARENT 4 5 4 6
ROOT
ATOM      1  C   UNL     1      41.935  27.283 -12.877  1.00  0.00     0.010 C 
ATOM      2  C   UNL     1      40.764  27.344 -13.142  1.00  0.00    -0.047 C 
ATOM      3  C   UNL     1      39.342  27.402 -13.447  1.00  0.00     0.352 C 
ENDROOT
BRANCH   3   4
ATOM      4  N   UNL     1      39.084  28.270 -14.629  1.00  0.00    -0.330 N 
ATOM      5  H   UNL     1      39.030  29.235 -14.288  1.00  0.00     0.347 HD
ATOM      6  H   UNL     1      39.923  28.235 -15.217  1.00  0.00     0.347 HD
BRANCH   4   7
ATOM      7  C   UNL     1      37.909  28.046 -15.517  1.00  0.00     0.214 C 
ATOM      8  C   UNL     1      38.277  27.834 -16.996  1.00  0.00     0.075 C 
ATOM      9  C   UNL     1      36.880  29.130 -15.599  1.00  0.00     0.012 A 
ATOM     10  C   UNL     1      36.999  28.160 -17.788  1.00  0.00     0.042 C 
ATOM     11  C   UNL     1      36.361  29.938 -14.597  1.00  0.00     0.010 A 
ATOM     12  C   UNL     1      36.370  29.194 -16.905  1.00  0.00    -0.039 A 
ATOM     13  C   UNL     1      35.353  30.845 -14.932  1.00  0.00     0.001 A 
ATOM     14  C   UNL     1      35.362  30.081 -17.240  1.00  0.00     0.004 A 
ATOM     15  C   UNL     1      34.860  30.919 -16.244  1.00  0.00     0.000 A 
ENDBRANCH   4   7
ENDBRANCH   3   4
TORSDOF 2
ENDMDL
MODEL 8
REMARK VINA RESULT:    -6.968      1.881      3.638
REMARK INTER + INTRA:          -7.973
REMARK INTER:                  -7.739
REMARK INTRA:                  -0.234
REMARK UNBOUND:                -0.190
REMARK SMILES C#CC[NH2+][C@@H]1CCc2ccccc21
REMARK SMILES IDX 1 1 2 2 3 3 4 4 5 7 6 8 13 9 7 10 12 11 8 12 11 13 9 14
REMARK SMILES IDX 10 15
REMARK H PARENT 4 5 4 6
ROOT
ATOM      1  C   UNL     1      32.159  29.667 -12.284  1.00  0.00     0.010 C 
ATOM      2  C   UNL     1      33.093  30.307 -12.688  1.00  0.00    -0.047 C 
ATOM      3  C   UNL     1      34.216  31.101 -13.166  1.00  0.00     0.352 C 
ENDROOT
BRANCH   3   4
ATOM      4  N   UNL     1      35.032  30.334 -14.148  1.00  0.00    -0.330 N 
ATOM      5  H   UNL     1      35.930  30.130 -13.697  1.00  0.00     0.347 HD
ATOM      6  H   UNL     1      34.576  29.424 -14.273  1.00  0.00     0.347 HD
BRANCH   4   7
ATOM      7  C   UNL     1      35.328  30.874 -15.504  1.00  0.00     0.214 C 
ATOM      8  C   UNL     1      36.448  31.929 -15.526  1.00  0.00     0.075 C 
ATOM      9  C   UNL     1      34.222  31.572 -16.232  1.00  0.00     0.012 A 
ATOM     10  C   UNL     1      36.239  32.723 -16.826  1.00  0.00     0.042 C 
ATOM     11  C   UNL     1      32.873  31.256 -16.312  1.00  0.00     0.010 A 
ATOM     12  C   UNL     1      34.752  32.635 -16.981  1.00  0.00    -0.039 A 
ATOM     13  C   UNL     1      32.052  32.048 -17.118  1.00  0.00     0.001 A 
ATOM     14  C   UNL     1      33.945  33.415 -17.792  1.00  0.00     0.004 A 
ATOM     15  C   UNL     1      32.583  33.121 -17.848  1.00  0.00     0.000 A 
ENDBRANCH   4   7
ENDBRANCH   3   4
TORSDOF 2
ENDMDL
MODEL 9
REMARK VINA RESULT:    -6.934      1.633      4.604
REMARK INTER + INTRA:          -7.935
REMARK INTER:                  -7.505
REMARK INTRA:                  -0.430
REMARK UNBOUND:                -0.190
REMARK SMILES C#CC[NH2+][C@@H]1CCc2ccccc21
REMARK SMILES IDX 1 1 2 2 3 3 4 4 5 7 6 8 13 9 7 10 12 11 8 12 11 13 9 14
REMARK SMILES IDX 10 15
REMARK H PARENT 4 5 4 6
ROOT
ATOM      1  C   UNL     1      37.150  29.209 -15.249  1.00  0.00     0.010 C 
ATOM      2  C   UNL     1      37.042  30.321 -15.692  1.00  0.00    -0.047 C 
ATOM      3  C   UNL     1      36.934  31.667 -16.234  1.00  0.00     0.352 C 
ENDROOT
BRANCH   3   4
ATOM      4  N   UNL     1      35.592  32.250 -15.955  1.00  0.00    -0.330 N 
ATOM      5  H   UNL     1      35.600  32.571 -14.982  1.00  0.00     0.347 HD
ATOM      6  H   UNL     1      35.508  33.100 -16.523  1.00  0.00     0.347 HD
BRANCH   4   7
ATOM      7  C   UNL     1      34.344  31.460 -16.152  1.00  0.00     0.214 C 
ATOM      8  C   UNL     1      33.288  32.168 -17.018  1.00  0.00     0.075 C 
ATOM      9  C   UNL     1      33.557  31.086 -14.935  1.00  0.00     0.012 A 
ATOM     10  C   UNL     1      31.950  31.495 -16.667  1.00  0.00     0.042 C 
ATOM     11  C   UNL     1      33.997  30.665 -13.688  1.00  0.00     0.010 A 
ATOM     12  C   UNL     1      32.187  31.117 -15.236  1.00  0.00    -0.039 A 
ATOM     13  C   UNL     1      33.042  30.316 -12.730  1.00  0.00     0.001 A 
ATOM     14  C   UNL     1      31.236  30.759 -14.296  1.00  0.00     0.004 A 
ATOM     15  C   UNL     1      31.672  30.367 -13.030  1.00  0.00     0.000 A 
ENDBRANCH   4   7
ENDBRANCH   3   4
TORSDOF 2
ENDMDL
