MODEL 1
REMARK VINA RESULT:    -9.587      0.000      0.000
REMARK INTER + INTRA:         -14.156
REMARK INTER:                 -13.791
REMARK INTRA:                  -0.365
REMARK UNBOUND:                -0.365
REMARK SMILES O=c1c(O)c(-c2ccc(O)cc2)oc2cc(O[C@@H]3O[C@H](CO)[C@@H](O)[C@H](O)[C@H]3O)cc(O)c12
REMARK SMILES IDX 17 1 16 2 1 3 2 4 3 5 32 6 5 7 30 8 14 9 13 10 29 11 15 12
REMARK SMILES IDX 4 13 6 15 7 16 12 17 8 18 11 19 9 20 10 21 31 23 18 25 19 26
REMARK SMILES IDX 27 27 20 28 25 29 23 30 28 31 21 33 22 34 26 36 24 38
REMARK H PARENT 4 14 10 22 31 24 28 32 22 35 26 37 24 39
ROOT
ATOM      1  O   UNL     1      34.432  31.969 -16.808  1.00  0.00    -0.462 OA
ENDROOT
BRANCH   1   2
ATOM      2  C   UNL     1      35.212  30.857 -16.959  1.00  0.00     0.130 A 
ATOM      3  O   UNL     1      37.369  26.549 -18.713  1.00  0.00    -0.285 OA
ATOM      4  C   UNL     1      37.463  27.292 -17.741  1.00  0.00     0.238 A 
ATOM      5  C   UNL     1      38.469  26.946 -16.705  1.00  0.00     0.208 A 
ATOM      6  C   UNL     1      36.660  28.509 -17.513  1.00  0.00     0.111 A 
ATOM      7  C   UNL     1      38.610  27.745 -15.634  1.00  0.00     0.180 A 
ATOM      8  C   UNL     1      35.662  28.947 -18.390  1.00  0.00     0.134 A 
ATOM      9  C   UNL     1      36.918  29.251 -16.361  1.00  0.00     0.146 A 
ATOM     10  O   UNL     1      37.871  28.901 -15.435  1.00  0.00    -0.452 OA
ATOM     11  C   UNL     1      34.942  30.112 -18.111  1.00  0.00     0.093 A 
ATOM     12  C   UNL     1      36.198  30.417 -16.080  1.00  0.00     0.094 A 
BRANCH   5  13
ATOM     13  O   UNL     1      39.222  25.806 -16.932  1.00  0.00    -0.502 OA
ATOM     14  H   UNL     1      39.367  25.429 -16.037  1.00  0.00     0.293 HD
ENDBRANCH   5  13
BRANCH   7  15
ATOM     15  C   UNL     1      39.588  27.493 -14.554  1.00  0.00     0.021 A 
ATOM     16  C   UNL     1      40.732  26.710 -14.763  1.00  0.00     0.016 A 
ATOM     17  C   UNL     1      39.356  28.011 -13.268  1.00  0.00     0.016 A 
ATOM     18  C   UNL     1      41.628  26.462 -13.720  1.00  0.00     0.047 A 
ATOM     19  C   UNL     1      40.252  27.765 -12.223  1.00  0.00     0.047 A 
ATOM     20  C   UNL     1      41.382  26.992 -12.460  1.00  0.00     0.115 A 
BRANCH  20  21
ATOM     21  O   UNL     1      42.282  26.726 -11.471  1.00  0.00    -0.508 OA
ATOM     22  H   UNL     1      41.879  26.103 -10.844  1.00  0.00     0.293 HD
ENDBRANCH  20  21
ENDBRANCH   7  15
BRANCH   8  23
ATOM     23  O   UNL     1      35.372  28.250 -19.528  1.00  0.00    -0.507 OA
ATOM     24  H   UNL     1      36.023  27.545 -19.665  1.00  0.00     0.293 HD
ENDBRANCH   8  23
ENDBRANCH   1   2
BRANCH   1  25
ATOM     25  C   UNL     1      33.077  31.913 -17.288  1.00  0.00     0.339 C 
ATOM     26  O   UNL     1      32.797  33.098 -18.041  1.00  0.00    -0.332 OA
ATOM     27  C   UNL     1      32.162  31.814 -16.051  1.00  0.00     0.214 C 
ATOM     28  C   UNL     1      31.411  33.456 -18.193  1.00  0.00     0.179 C 
ATOM     29  C   UNL     1      30.689  31.714 -16.474  1.00  0.00     0.180 C 
ATOM     30  C   UNL     1      30.416  32.341 -17.846  1.00  0.00     0.177 C 
BRANCH  27  31
ATOM     31  O   UNL     1      32.472  30.672 -15.234  1.00  0.00    -0.384 OA
ATOM     32  H   UNL     1      31.898  30.738 -14.449  1.00  0.00     0.211 HD
ENDBRANCH  27  31
BRANCH  28  33
ATOM     33  C   UNL     1      31.166  34.736 -17.380  1.00  0.00     0.191 C 
BRANCH  33  34
ATOM     34  O   UNL     1      29.764  34.983 -17.285  1.00  0.00    -0.394 OA
ATOM     35  H   UNL     1      29.326  34.193 -17.663  1.00  0.00     0.210 HD
ENDBRANCH  33  34
ENDBRANCH  28  33
BRANCH  29  36
ATOM     36  O   UNL     1      29.888  32.339 -15.462  1.00  0.00    -0.387 OA
ATOM     37  H   UNL     1      30.232  33.240 -15.322  1.00  0.00     0.211 HD
ENDBRANCH  29  36
BRANCH  30  38
ATOM     38  O   UNL     1      30.532  31.319 -18.850  1.00  0.00    -0.387 OA
ATOM     39  H   UNL     1      29.979  31.571 -19.610  1.00  0.00     0.211 HD
ENDBRANCH  30  38
ENDBRANCH   1  25
TORSDOF 11
ENDMDL
MODEL 2
REMARK VINA RESULT:    -7.812      1.940      3.194
REMARK INTER + INTRA:         -11.602
REMARK INTER:                 -13.175
REMARK INTRA:                   1.572
REMARK UNBOUND:                -0.365
REMARK SMILES O=c1c(O)c(-c2ccc(O)cc2)oc2cc(O[C@@H]3O[C@H](CO)[C@@H](O)[C@H](O)[C@H]3O)cc(O)c12
REMARK SMILES IDX 17 1 16 2 1 3 2 4 3 5 32 6 5 7 30 8 14 9 13 10 29 11 15 12
REMARK SMILES IDX 4 13 6 15 7 16 12 17 8 18 11 19 9 20 10 21 31 23 18 25 19 26
REMARK SMILES IDX 27 27 20 28 25 29 23 30 28 31 21 33 22 34 26 36 24 38
REMARK H PARENT 4 14 10 22 31 24 28 32 22 35 26 37 24 39
ROOT
ATOM      1  O   UNL     1      35.242  30.546 -14.640  1.00  0.00    -0.462 OA
ENDROOT
BRANCH   1   2
ATOM      2  C   UNL     1      36.151  29.720 -15.241  1.00  0.00     0.130 A 
ATOM      3  O   UNL     1      38.647  26.731 -18.576  1.00  0.00    -0.285 OA
ATOM      4  C   UNL     1      38.775  27.121 -17.420  1.00  0.00     0.238 A 
ATOM      5  C   UNL     1      39.971  26.664 -16.668  1.00  0.00     0.208 A 
ATOM      6  C   UNL     1      37.839  28.014 -16.709  1.00  0.00     0.111 A 
ATOM      7  C   UNL     1      40.151  27.083 -15.403  1.00  0.00     0.180 A 
ATOM      8  C   UNL     1      36.662  28.507 -17.281  1.00  0.00     0.134 A 
ATOM      9  C   UNL     1      38.156  28.377 -15.400  1.00  0.00     0.146 A 
ATOM     10  O   UNL     1      39.284  27.942 -14.747  1.00  0.00    -0.452 OA
ATOM     11  C   UNL     1      35.824  29.352 -16.549  1.00  0.00     0.093 A 
ATOM     12  C   UNL     1      37.318  29.223 -14.666  1.00  0.00     0.094 A 
BRANCH   5  13
ATOM     13  O   UNL     1      40.846  25.832 -17.346  1.00  0.00    -0.502 OA
ATOM     14  H   UNL     1      41.715  25.990 -16.916  1.00  0.00     0.293 HD
ENDBRANCH   5  13
BRANCH   7  15
ATOM     15  C   UNL     1      41.312  26.693 -14.575  1.00  0.00     0.021 A 
ATOM     16  C   UNL     1      41.476  27.165 -13.265  1.00  0.00     0.016 A 
ATOM     17  C   UNL     1      42.307  25.861 -15.117  1.00  0.00     0.016 A 
ATOM     18  C   UNL     1      42.596  26.805 -12.511  1.00  0.00     0.047 A 
ATOM     19  C   UNL     1      43.428  25.499 -14.364  1.00  0.00     0.047 A 
ATOM     20  C   UNL     1      43.562  25.975 -13.065  1.00  0.00     0.115 A 
BRANCH  20  21
ATOM     21  O   UNL     1      44.638  25.648 -12.295  1.00  0.00    -0.508 OA
ATOM     22  H   UNL     1      45.443  25.751 -12.828  1.00  0.00     0.293 HD
ENDBRANCH  20  21
ENDBRANCH   7  15
BRANCH   8  23
ATOM     23  O   UNL     1      36.310  28.174 -18.558  1.00  0.00    -0.507 OA
ATOM     24  H   UNL     1      36.912  28.592 -19.193  1.00  0.00     0.293 HD
ENDBRANCH   8  23
ENDBRANCH   1   2
BRANCH   1  25
ATOM     25  C   UNL     1      34.539  31.490 -15.467  1.00  0.00     0.339 C 
ATOM     26  O   UNL     1      33.857  30.783 -16.510  1.00  0.00    -0.332 OA
ATOM     27  C   UNL     1      35.590  32.455 -16.047  1.00  0.00     0.214 C 
ATOM     28  C   UNL     1      33.508  31.541 -17.683  1.00  0.00     0.179 C 
ATOM     29  C   UNL     1      34.920  33.526 -16.921  1.00  0.00     0.180 C 
ATOM     30  C   UNL     1      33.582  33.064 -17.513  1.00  0.00     0.177 C 
BRANCH  27  31
ATOM     31  O   UNL     1      36.343  33.124 -15.020  1.00  0.00    -0.384 OA
ATOM     32  H   UNL     1      36.802  33.863 -15.459  1.00  0.00     0.211 HD
ENDBRANCH  27  31
BRANCH  28  33
ATOM     33  C   UNL     1      34.379  31.036 -18.843  1.00  0.00     0.191 C 
BRANCH  33  34
ATOM     34  O   UNL     1      34.037  29.683 -19.145  1.00  0.00    -0.394 OA
ATOM     35  H   UNL     1      34.719  29.131 -18.712  1.00  0.00     0.210 HD
ENDBRANCH  33  34
ENDBRANCH  28  33
BRANCH  29  36
ATOM     36  O   UNL     1      35.835  33.893 -17.962  1.00  0.00    -0.387 OA
ATOM     37  H   UNL     1      35.481  33.556 -18.805  1.00  0.00     0.211 HD
ENDBRANCH  29  36
BRANCH  30  38
ATOM     38  O   UNL     1      32.526  33.460 -16.623  1.00  0.00    -0.387 OA
ATOM     39  H   UNL     1      32.845  34.203 -16.080  1.00  0.00     0.211 HD
ENDBRANCH  30  38
ENDBRANCH   1  25
TORSDOF 11
ENDMDL
MODEL 3
REMARK VINA RESULT:    -7.779      2.301      4.230
REMARK INTER + INTRA:         -11.554
REMARK INTER:                 -10.835
REMARK INTRA:                  -0.719
REMARK UNBOUND:                -0.365
REMARK SMILES O=c1c(O)c(-c2ccc(O)cc2)oc2cc(O[C@@H]3O[C@H](CO)[C@@H](O)[C@H](O)[C@H]3O)cc(O)c12
REMARK SMILES IDX 17 1 16 2 1 3 2 4 3 5 32 6 5 7 30 8 14 9 13 10 29 11 15 12
REMARK SMILES IDX 4 13 6 15 7 16 12 17 8 18 11 19 9 20 10 21 31 23 18 25 19 26
REMARK SMILES IDX 27 27 20 28 25 29 23 30 28 31 21 33 22 34 26 36 24 38
REMARK H PARENT 4 14 10 22 31 24 28 32 22 35 26 37 24 39
ROOT
ATOM      1  O   UNL     1      31.453  32.756 -17.562  1.00  0.00    -0.462 OA
ENDROOT
BRANCH   1   2
ATOM      2  C   UNL     1      32.817  32.678 -17.517  1.00  0.00     0.130 A 
ATOM      3  O   UNL     1      37.829  33.636 -18.017  1.00  0.00    -0.285 OA
ATOM      4  C   UNL     1      37.104  32.754 -17.569  1.00  0.00     0.238 A 
ATOM      5  C   UNL     1      37.759  31.567 -16.962  1.00  0.00     0.208 A 
ATOM      6  C   UNL     1      35.628  32.771 -17.579  1.00  0.00     0.111 A 
ATOM      7  C   UNL     1      36.997  30.586 -16.450  1.00  0.00     0.180 A 
ATOM      8  C   UNL     1      34.876  33.810 -18.134  1.00  0.00     0.134 A 
ATOM      9  C   UNL     1      34.963  31.689 -17.002  1.00  0.00     0.146 A 
ATOM     10  O   UNL     1      35.611  30.617 -16.437  1.00  0.00    -0.452 OA
ATOM     11  C   UNL     1      33.479  33.760 -18.105  1.00  0.00     0.093 A 
ATOM     12  C   UNL     1      33.565  31.638 -16.972  1.00  0.00     0.094 A 
BRANCH   5  13
ATOM     13  O   UNL     1      39.144  31.564 -16.953  1.00  0.00    -0.502 OA
ATOM     14  H   UNL     1      39.384  32.160 -16.211  1.00  0.00     0.293 HD
ENDBRANCH   5  13
BRANCH   7  15
ATOM     15  C   UNL     1      37.552  29.371 -15.817  1.00  0.00     0.021 A 
ATOM     16  C   UNL     1      37.954  29.357 -14.473  1.00  0.00     0.016 A 
ATOM     17  C   UNL     1      37.726  28.204 -16.580  1.00  0.00     0.016 A 
ATOM     18  C   UNL     1      38.503  28.204 -13.904  1.00  0.00     0.047 A 
ATOM     19  C   UNL     1      38.274  27.050 -16.013  1.00  0.00     0.047 A 
ATOM     20  C   UNL     1      38.657  27.061 -14.677  1.00  0.00     0.115 A 
BRANCH  20  21
ATOM     21  O   UNL     1      39.195  25.959 -14.082  1.00  0.00    -0.508 OA
ATOM     22  H   UNL     1      38.474  25.421 -13.715  1.00  0.00     0.293 HD
ENDBRANCH  20  21
ENDBRANCH   7  15
BRANCH   8  23
ATOM     23  O   UNL     1      35.484  34.886 -18.713  1.00  0.00    -0.507 OA
ATOM     24  H   UNL     1      36.448  34.815 -18.626  1.00  0.00     0.293 HD
ENDBRANCH   8  23
ENDBRANCH   1   2
BRANCH   1  25
ATOM     25  C   UNL     1      30.861  33.704 -18.467  1.00  0.00     0.339 C 
ATOM     26  O   UNL     1      30.639  34.938 -17.775  1.00  0.00    -0.332 OA
ATOM     27  C   UNL     1      29.532  33.096 -18.955  1.00  0.00     0.214 C 
ATOM     28  C   UNL     1      29.653  35.825 -18.333  1.00  0.00     0.179 C 
ATOM     29  C   UNL     1      28.843  34.032 -19.959  1.00  0.00     0.180 C 
ATOM     30  C   UNL     1      29.238  35.502 -19.775  1.00  0.00     0.177 C 
BRANCH  27  31
ATOM     31  O   UNL     1      29.716  31.817 -19.588  1.00  0.00    -0.384 OA
ATOM     32  H   UNL     1      28.822  31.456 -19.731  1.00  0.00     0.211 HD
ENDBRANCH  27  31
BRANCH  28  33
ATOM     33  C   UNL     1      28.456  35.859 -17.371  1.00  0.00     0.191 C 
BRANCH  33  34
ATOM     34  O   UNL     1      27.349  36.499 -18.005  1.00  0.00    -0.394 OA
ATOM     35  H   UNL     1      26.809  36.879 -17.283  1.00  0.00     0.210 HD
ENDBRANCH  33  34
ENDBRANCH  28  33
BRANCH  29  36
ATOM     36  O   UNL     1      27.425  33.868 -19.827  1.00  0.00    -0.387 OA
ATOM     37  H   UNL     1      27.211  32.936 -20.017  1.00  0.00     0.211 HD
ENDBRANCH  29  36
BRANCH  30  38
ATOM     38  O   UNL     1      30.358  35.787 -20.630  1.00  0.00    -0.387 OA
ATOM     39  H   UNL     1      31.151  35.880 -20.074  1.00  0.00     0.211 HD
ENDBRANCH  30  38
ENDBRANCH   1  25
TORSDOF 11
ENDMDL
MODEL 4
REMARK VINA RESULT:    -7.414      1.779      9.910
REMARK INTER + INTRA:         -11.029
REMARK INTER:                 -10.309
REMARK INTRA:                  -0.719
REMARK UNBOUND:                -0.365
REMARK SMILES O=c1c(O)c(-c2ccc(O)cc2)oc2cc(O[C@@H]3O[C@H](CO)[C@@H](O)[C@H](O)[C@H]3O)cc(O)c12
REMARK SMILES IDX 17 1 16 2 1 3 2 4 3 5 32 6 5 7 30 8 14 9 13 10 29 11 15 12
REMARK SMILES IDX 4 13 6 15 7 16 12 17 8 18 11 19 9 20 10 21 31 23 18 25 19 26
REMARK SMILES IDX 27 27 20 28 25 29 23 30 28 31 21 33 22 34 26 36 24 38
REMARK H PARENT 4 14 10 22 31 24 28 32 22 35 26 37 24 39
ROOT
ATOM      1  O   UNL     1      37.302  29.933 -15.886  1.00  0.00    -0.462 OA
ENDROOT
BRANCH   1   2
ATOM      2  C   UNL     1      36.004  30.268 -15.622  1.00  0.00     0.130 A 
ATOM      3  O   UNL     1      31.427  30.893 -13.395  1.00  0.00    -0.285 OA
ATOM      4  C   UNL     1      31.968  31.145 -14.467  1.00  0.00     0.238 A 
ATOM      5  C   UNL     1      31.157  31.839 -15.500  1.00  0.00     0.208 A 
ATOM      6  C   UNL     1      33.363  30.817 -14.821  1.00  0.00     0.111 A 
ATOM      7  C   UNL     1      31.720  32.143 -16.682  1.00  0.00     0.180 A 
ATOM      8  C   UNL     1      34.237  30.147 -13.960  1.00  0.00     0.134 A 
ATOM      9  C   UNL     1      33.820  31.201 -16.081  1.00  0.00     0.146 A 
ATOM     10  O   UNL     1      33.038  31.857 -17.002  1.00  0.00    -0.452 OA
ATOM     11  C   UNL     1      35.548  29.873 -14.361  1.00  0.00     0.093 A 
ATOM     12  C   UNL     1      35.132  30.928 -16.484  1.00  0.00     0.094 A 
BRANCH   5  13
ATOM     13  O   UNL     1      29.852  32.147 -15.156  1.00  0.00    -0.502 OA
ATOM     14  H   UNL     1      29.572  32.806 -15.828  1.00  0.00     0.293 HD
ENDBRANCH   5  13
BRANCH   7  15
ATOM     15  C   UNL     1      31.002  32.841 -17.769  1.00  0.00     0.021 A 
ATOM     16  C   UNL     1      30.999  34.240 -17.873  1.00  0.00     0.016 A 
ATOM     17  C   UNL     1      30.263  32.098 -18.707  1.00  0.00     0.016 A 
ATOM     18  C   UNL     1      30.289  34.878 -18.894  1.00  0.00     0.047 A 
ATOM     19  C   UNL     1      29.553  32.735 -19.729  1.00  0.00     0.047 A 
ATOM     20  C   UNL     1      29.574  34.122 -19.813  1.00  0.00     0.115 A 
BRANCH  20  21
ATOM     21  O   UNL     1      28.896  34.785 -20.793  1.00  0.00    -0.508 OA
ATOM     22  H   UNL     1      28.374  35.494 -20.382  1.00  0.00     0.293 HD
ENDBRANCH  20  21
ENDBRANCH   7  15
BRANCH   8  23
ATOM     23  O   UNL     1      33.831  29.749 -12.718  1.00  0.00    -0.507 OA
ATOM     24  H   UNL     1      32.983  29.283 -12.775  1.00  0.00     0.293 HD
ENDBRANCH   8  23
ENDBRANCH   1   2
BRANCH   1  25
ATOM     25  C   UNL     1      37.733  28.599 -15.564  1.00  0.00     0.339 C 
ATOM     26  O   UNL     1      38.359  28.606 -14.276  1.00  0.00    -0.332 OA
ATOM     27  C   UNL     1      38.726  28.167 -16.661  1.00  0.00     0.214 C 
ATOM     28  C   UNL     1      39.257  27.518 -13.988  1.00  0.00     0.179 C 
ATOM     29  C   UNL     1      39.214  26.732 -16.415  1.00  0.00     0.180 C 
ATOM     30  C   UNL     1      39.145  26.320 -14.940  1.00  0.00     0.177 C 
BRANCH  27  31
ATOM     31  O   UNL     1      38.146  28.224 -17.976  1.00  0.00    -0.384 OA
ATOM     32  H   UNL     1      38.649  28.902 -18.463  1.00  0.00     0.211 HD
ENDBRANCH  27  31
BRANCH  28  33
ATOM     33  C   UNL     1      40.680  28.090 -13.927  1.00  0.00     0.191 C 
BRANCH  33  34
ATOM     34  O   UNL     1      41.629  27.026 -14.015  1.00  0.00    -0.394 OA
ATOM     35  H   UNL     1      42.438  27.420 -14.398  1.00  0.00     0.210 HD
ENDBRANCH  33  34
ENDBRANCH  28  33
BRANCH  29  36
ATOM     36  O   UNL     1      40.556  26.623 -16.909  1.00  0.00    -0.387 OA
ATOM     37  H   UNL     1      40.616  25.808 -17.440  1.00  0.00     0.211 HD
ENDBRANCH  29  36
BRANCH  30  38
ATOM     38  O   UNL     1      37.879  25.683 -14.700  1.00  0.00    -0.387 OA
ATOM     39  H   UNL     1      37.974  24.733 -14.888  1.00  0.00     0.211 HD
ENDBRANCH  30  38
ENDBRANCH   1  25
TORSDOF 11
ENDMDL
MODEL 5
REMARK VINA RESULT:    -7.227      1.508      2.244
REMARK INTER + INTRA:         -10.761
REMARK INTER:                 -10.728
REMARK INTRA:                  -0.032
REMARK UNBOUND:                -0.365
REMARK SMILES O=c1c(O)c(-c2ccc(O)cc2)oc2cc(O[C@@H]3O[C@H](CO)[C@@H](O)[C@H](O)[C@H]3O)cc(O)c12
REMARK SMILES IDX 17 1 16 2 1 3 2 4 3 5 32 6 5 7 30 8 14 9 13 10 29 11 15 12
REMARK SMILES IDX 4 13 6 15 7 16 12 17 8 18 11 19 9 20 10 21 31 23 18 25 19 26
REMARK SMILES IDX 27 27 20 28 25 29 23 30 28 31 21 33 22 34 26 36 24 38
REMARK H PARENT 4 14 10 22 31 24 28 32 22 35 26 37 24 39
ROOT
ATOM      1  O   UNL     1      35.225  30.495 -15.141  1.00  0.00    -0.462 OA
ENDROOT
BRANCH   1   2
ATOM      2  C   UNL     1      36.223  29.641 -15.522  1.00  0.00     0.130 A 
ATOM      3  O   UNL     1      39.192  26.385 -18.144  1.00  0.00    -0.285 OA
ATOM      4  C   UNL     1      39.163  26.911 -17.036  1.00  0.00     0.238 A 
ATOM      5  C   UNL     1      40.265  26.591 -16.093  1.00  0.00     0.208 A 
ATOM      6  C   UNL     1      38.123  27.844 -16.557  1.00  0.00     0.111 A 
ATOM      7  C   UNL     1      40.274  27.160 -14.876  1.00  0.00     0.180 A 
ATOM      8  C   UNL     1      37.017  28.220 -17.324  1.00  0.00     0.134 A 
ATOM      9  C   UNL     1      38.264  28.368 -15.272  1.00  0.00     0.146 A 
ATOM     10  O   UNL     1      39.310  28.055 -14.438  1.00  0.00    -0.452 OA
ATOM     11  C   UNL     1      36.072  29.112 -16.807  1.00  0.00     0.093 A 
ATOM     12  C   UNL     1      37.319  29.260 -14.753  1.00  0.00     0.094 A 
BRANCH   5  13
ATOM     13  O   UNL     1      41.238  25.721 -16.554  1.00  0.00    -0.502 OA
ATOM     14  H   UNL     1      40.745  25.070 -17.098  1.00  0.00     0.293 HD
ENDBRANCH   5  13
BRANCH   7  15
ATOM     15  C   UNL     1      41.330  26.914 -13.871  1.00  0.00     0.021 A 
ATOM     16  C   UNL     1      42.631  26.546 -14.243  1.00  0.00     0.016 A 
ATOM     17  C   UNL     1      41.025  27.005 -12.502  1.00  0.00     0.016 A 
ATOM     18  C   UNL     1      43.606  26.291 -13.273  1.00  0.00     0.047 A 
ATOM     19  C   UNL     1      41.998  26.751 -11.531  1.00  0.00     0.047 A 
ATOM     20  C   UNL     1      43.282  26.396 -11.928  1.00  0.00     0.115 A 
BRANCH  20  21
ATOM     21  O   UNL     1      44.263  26.139 -11.016  1.00  0.00    -0.508 OA
ATOM     22  H   UNL     1      45.063  25.862 -11.492  1.00  0.00     0.293 HD
ENDBRANCH  20  21
ENDBRANCH   7  15
BRANCH   8  23
ATOM     23  O   UNL     1      36.837  27.729 -18.586  1.00  0.00    -0.507 OA
ATOM     24  H   UNL     1      36.940  28.437 -19.240  1.00  0.00     0.293 HD
ENDBRANCH   8  23
ENDBRANCH   1   2
BRANCH   1  25
ATOM     25  C   UNL     1      34.281  30.918 -16.140  1.00  0.00     0.339 C 
ATOM     26  O   UNL     1      34.905  31.880 -16.998  1.00  0.00    -0.332 OA
ATOM     27  C   UNL     1      33.080  31.535 -15.396  1.00  0.00     0.214 C 
ATOM     28  C   UNL     1      34.030  32.755 -17.732  1.00  0.00     0.179 C 
ATOM     29  C   UNL     1      32.000  31.985 -16.390  1.00  0.00     0.180 C 
ATOM     30  C   UNL     1      32.563  32.308 -17.780  1.00  0.00     0.177 C 
BRANCH  27  31
ATOM     31  O   UNL     1      32.480  30.613 -14.469  1.00  0.00    -0.384 OA
ATOM     32  H   UNL     1      32.105  29.893 -15.010  1.00  0.00     0.211 HD
ENDBRANCH  27  31
BRANCH  28  33
ATOM     33  C   UNL     1      34.195  34.170 -17.159  1.00  0.00     0.191 C 
BRANCH  33  34
ATOM     34  O   UNL     1      35.433  34.260 -16.454  1.00  0.00    -0.394 OA
ATOM     35  H   UNL     1      35.198  34.383 -15.513  1.00  0.00     0.210 HD
ENDBRANCH  33  34
ENDBRANCH  28  33
BRANCH  29  36
ATOM     36  O   UNL     1      31.328  33.125 -15.838  1.00  0.00    -0.387 OA
ATOM     37  H   UNL     1      31.994  33.678 -15.390  1.00  0.00     0.211 HD
ENDBRANCH  29  36
BRANCH  30  38
ATOM     38  O   UNL     1      32.488  31.125 -18.592  1.00  0.00    -0.387 OA
ATOM     39  H   UNL     1      31.989  31.339 -19.400  1.00  0.00     0.211 HD
ENDBRANCH  30  38
ENDBRANCH   1  25
TORSDOF 11
ENDMDL
MODEL 6
REMARK VINA RESULT:    -7.198      1.860      9.839
REMARK INTER + INTRA:         -10.718
REMARK INTER:                 -10.633
REMARK INTRA:                  -0.085
REMARK UNBOUND:                -0.365
REMARK SMILES O=c1c(O)c(-c2ccc(O)cc2)oc2cc(O[C@@H]3O[C@H](CO)[C@@H](O)[C@H](O)[C@H]3O)cc(O)c12
REMARK SMILES IDX 17 1 16 2 1 3 2 4 3 5 32 6 5 7 30 8 14 9 13 10 29 11 15 12
REMARK SMILES IDX 4 13 6 15 7 16 12 17 8 18 11 19 9 20 10 21 31 23 18 25 19 26
REMARK SMILES IDX 27 27 20 28 25 29 23 30 28 31 21 33 22 34 26 36 24 38
REMARK H PARENT 4 14 10 22 31 24 28 32 22 35 26 37 24 39
ROOT
ATOM      1  O   UNL     1      39.889  27.405 -13.030  1.00  0.00    -0.462 OA
ENDROOT
BRANCH   1   2
ATOM      2  C   UNL     1      39.157  27.556 -14.175  1.00  0.00     0.130 A 
ATOM      3  O   UNL     1      37.124  26.946 -18.843  1.00  0.00    -0.285 OA
ATOM      4  C   UNL     1      37.046  27.732 -17.904  1.00  0.00     0.238 A 
ATOM      5  C   UNL     1      36.116  28.881 -18.043  1.00  0.00     0.208 A 
ATOM      6  C   UNL     1      37.800  27.632 -16.638  1.00  0.00     0.111 A 
ATOM      7  C   UNL     1      35.994  29.754 -17.029  1.00  0.00     0.180 A 
ATOM      8  C   UNL     1      38.725  26.618 -16.373  1.00  0.00     0.134 A 
ATOM      9  C   UNL     1      37.567  28.604 -15.666  1.00  0.00     0.146 A 
ATOM     10  O   UNL     1      36.684  29.643 -15.832  1.00  0.00    -0.452 OA
ATOM     11  C   UNL     1      39.401  26.584 -15.150  1.00  0.00     0.093 A 
ATOM     12  C   UNL     1      38.243  28.571 -14.441  1.00  0.00     0.094 A 
BRANCH   5  13
ATOM     13  O   UNL     1      35.409  28.962 -19.231  1.00  0.00    -0.502 OA
ATOM     14  H   UNL     1      34.599  29.466 -18.999  1.00  0.00     0.293 HD
ENDBRANCH   5  13
BRANCH   7  15
ATOM     15  C   UNL     1      35.089  30.923 -17.067  1.00  0.00     0.021 A 
ATOM     16  C   UNL     1      33.705  30.790 -16.884  1.00  0.00     0.016 A 
ATOM     17  C   UNL     1      35.611  32.200 -17.334  1.00  0.00     0.016 A 
ATOM     18  C   UNL     1      32.866  31.906 -16.951  1.00  0.00     0.047 A 
ATOM     19  C   UNL     1      34.773  33.318 -17.401  1.00  0.00     0.047 A 
ATOM     20  C   UNL     1      33.406  33.159 -17.208  1.00  0.00     0.115 A 
BRANCH  20  21
ATOM     21  O   UNL     1      32.552  34.221 -17.265  1.00  0.00    -0.508 OA
ATOM     22  H   UNL     1      32.703  34.695 -18.100  1.00  0.00     0.293 HD
ENDBRANCH  20  21
ENDBRANCH   7  15
BRANCH   8  23
ATOM     23  O   UNL     1      38.988  25.647 -17.298  1.00  0.00    -0.507 OA
ATOM     24  H   UNL     1      38.160  25.299 -17.664  1.00  0.00     0.293 HD
ENDBRANCH   8  23
ENDBRANCH   1   2
BRANCH   1  25
ATOM     25  C   UNL     1      41.317  27.555 -13.117  1.00  0.00     0.339 C 
ATOM     26  O   UNL     1      41.752  27.149 -14.419  1.00  0.00    -0.332 OA
ATOM     27  C   UNL     1      41.933  26.661 -12.023  1.00  0.00     0.214 C 
ATOM     28  C   UNL     1      43.135  26.773 -14.551  1.00  0.00     0.179 C 
ATOM     29  C   UNL     1      43.464  26.786 -12.020  1.00  0.00     0.180 C 
ATOM     30  C   UNL     1      44.033  27.200 -13.383  1.00  0.00     0.177 C 
BRANCH  27  31
ATOM     31  O   UNL     1      41.454  26.998 -10.709  1.00  0.00    -0.384 OA
ATOM     32  H   UNL     1      41.776  27.899 -10.528  1.00  0.00     0.211 HD
ENDBRANCH  27  31
BRANCH  28  33
ATOM     33  C   UNL     1      43.186  25.260 -14.809  1.00  0.00     0.191 C 
BRANCH  33  34
ATOM     34  O   UNL     1      44.516  24.783 -14.603  1.00  0.00    -0.394 OA
ATOM     35  H   UNL     1      44.932  24.757 -15.488  1.00  0.00     0.210 HD
ENDBRANCH  33  34
ENDBRANCH  28  33
BRANCH  29  36
ATOM     36  O   UNL     1      44.016  25.530 -11.601  1.00  0.00    -0.387 OA
ATOM     37  H   UNL     1      44.148  24.980 -12.394  1.00  0.00     0.211 HD
ENDBRANCH  29  36
BRANCH  30  38
ATOM     38  O   UNL     1      44.148  28.632 -13.416  1.00  0.00    -0.387 OA
ATOM     39  H   UNL     1      44.929  28.889 -12.893  1.00  0.00     0.211 HD
ENDBRANCH  30  38
ENDBRANCH   1  25
TORSDOF 11
ENDMDL
