MODEL 1
REMARK VINA RESULT:    -6.876      0.000      0.000
REMARK INTER + INTRA:          -7.992
REMARK INTER:                  -7.680
REMARK INTRA:                  -0.312
REMARK UNBOUND:                -0.312
REMARK SMILES C#CC[NH2+][C@@H]1CCc2ccccc21
REMARK SMILES IDX 1 1 2 2 3 3 4 4 5 7 6 8 13 9 7 10 12 11 8 12 11 13 9 14
REMARK SMILES IDX 10 15
REMARK H PARENT 4 5 4 6
ROOT
ATOM      1  C   UNL     1      25.539  29.512  15.470  1.00  0.00     0.010 C 
ATOM      2  C   UNL     1      24.770  28.589  15.496  1.00  0.00    -0.047 C 
ATOM      3  C   UNL     1      23.855  27.457  15.520  1.00  0.00     0.352 C 
ENDROOT
BRANCH   3   4
ATOM      4  N   UNL     1      22.480  27.888  15.894  1.00  0.00    -0.330 N 
ATOM      5  H   UNL     1      22.403  28.883  15.660  1.00  0.00     0.347 HD
ATOM      6  H   UNL     1      21.831  27.408  15.261  1.00  0.00     0.347 HD
BRANCH   4   7
ATOM      7  C   UNL     1      21.959  27.715  17.279  1.00  0.00     0.214 C 
ATOM      8  C   UNL     1      20.441  27.476  17.349  1.00  0.00     0.075 C 
ATOM      9  C   UNL     1      22.146  28.847  18.240  1.00  0.00     0.012 A 
ATOM     10  C   UNL     1      20.031  27.857  18.781  1.00  0.00     0.042 C 
ATOM     11  C   UNL     1      23.236  29.687  18.422  1.00  0.00     0.010 A 
ATOM     12  C   UNL     1      21.033  28.926  19.092  1.00  0.00    -0.039 A 
ATOM     13  C   UNL     1      23.177  30.639  19.442  1.00  0.00     0.001 A 
ATOM     14  C   UNL     1      20.975  29.859  20.113  1.00  0.00     0.004 A 
ATOM     15  C   UNL     1      22.054  30.727  20.278  1.00  0.00     0.000 A 
ENDBRANCH   4   7
ENDBRANCH   3   4
TORSDOF 2
ENDMDL
MODEL 2
REMARK VINA RESULT:    -6.858      1.468      3.123
REMARK INTER + INTRA:          -7.971
REMARK INTER:                  -7.460
REMARK INTRA:                  -0.511
REMARK UNBOUND:                -0.312
REMARK SMILES C#CC[NH2+][C@@H]1CCc2ccccc21
REMARK SMILES IDX 1 1 2 2 3 3 4 4 5 7 6 8 13 9 7 10 12 11 8 12 11 13 9 14
REMARK SMILES IDX 10 15
REMARK H PARENT 4 5 4 6
ROOT
ATOM      1  C   UNL     1      22.922  24.877  18.048  1.00  0.00     0.010 C 
ATOM      2  C   UNL     1      23.305  25.458  17.068  1.00  0.00    -0.047 C 
ATOM      3  C   UNL     1      23.788  26.150  15.882  1.00  0.00     0.352 C 
ENDROOT
BRANCH   3   4
ATOM      4  N   UNL     1      22.865  27.252  15.492  1.00  0.00    -0.330 N 
ATOM      5  H   UNL     1      22.975  27.394  14.483  1.00  0.00     0.347 HD
ATOM      6  H   UNL     1      21.909  26.902  15.616  1.00  0.00     0.347 HD
BRANCH   4   7
ATOM      7  C   UNL     1      22.935  28.591  16.140  1.00  0.00     0.214 C 
ATOM      8  C   UNL     1      24.369  29.080  16.410  1.00  0.00     0.075 C 
ATOM      9  C   UNL     1      22.288  28.751  17.481  1.00  0.00     0.012 A 
ATOM     10  C   UNL     1      24.239  30.144  17.513  1.00  0.00     0.042 C 
ATOM     11  C   UNL     1      21.088  28.240  17.954  1.00  0.00     0.010 A 
ATOM     12  C   UNL     1      23.046  29.635  18.264  1.00  0.00    -0.039 A 
ATOM     13  C   UNL     1      20.679  28.592  19.242  1.00  0.00     0.001 A 
ATOM     14  C   UNL     1      22.639  29.999  19.536  1.00  0.00     0.004 A 
ATOM     15  C   UNL     1      21.450  29.461  20.029  1.00  0.00     0.000 A 
ENDBRANCH   4   7
ENDBRANCH   3   4
TORSDOF 2
ENDMDL
MODEL 3
REMARK VINA RESULT:    -6.855      1.790      4.011
REMARK INTER + INTRA:          -7.968
REMARK INTER:                  -7.610
REMARK INTRA:                  -0.357
REMARK UNBOUND:                -0.312
REMARK SMILES C#CC[NH2+][C@@H]1CCc2ccccc21
REMARK SMILES IDX 1 1 2 2 3 3 4 4 5 7 6 8 13 9 7 10 12 11 8 12 11 13 9 14
REMARK SMILES IDX 10 15
REMARK H PARENT 4 5 4 6
ROOT
ATOM      1  C   UNL     1      21.984  25.371  19.598  1.00  0.00     0.010 C 
ATOM      2  C   UNL     1      21.028  25.994  19.222  1.00  0.00    -0.047 C 
ATOM      3  C   UNL     1      19.860  26.729  18.761  1.00  0.00     0.352 C 
ENDROOT
BRANCH   3   4
ATOM      4  N   UNL     1      20.095  28.199  18.818  1.00  0.00    -0.330 N 
ATOM      5  H   UNL     1      20.043  28.549  17.857  1.00  0.00     0.347 HD
ATOM      6  H   UNL     1      19.293  28.614  19.304  1.00  0.00     0.347 HD
BRANCH   4   7
ATOM      7  C   UNL     1      21.328  28.765  19.432  1.00  0.00     0.214 C 
ATOM      8  C   UNL     1      21.076  30.003  20.311  1.00  0.00     0.075 C 
ATOM      9  C   UNL     1      22.408  29.245  18.513  1.00  0.00     0.012 A 
ATOM     10  C   UNL     1      22.428  30.731  20.394  1.00  0.00     0.042 C 
ATOM     11  C   UNL     1      22.877  28.692  17.330  1.00  0.00     0.010 A 
ATOM     12  C   UNL     1      23.027  30.376  19.067  1.00  0.00    -0.039 A 
ATOM     13  C   UNL     1      23.949  29.314  16.686  1.00  0.00     0.001 A 
ATOM     14  C   UNL     1      24.098  30.989  18.440  1.00  0.00     0.004 A 
ATOM     15  C   UNL     1      24.552  30.456  17.234  1.00  0.00     0.000 A 
ENDBRANCH   4   7
ENDBRANCH   3   4
TORSDOF 2
ENDMDL
MODEL 4
REMARK VINA RESULT:    -6.796      1.632      4.241
REMARK INTER + INTRA:          -7.902
REMARK INTER:                  -7.485
REMARK INTRA:                  -0.417
REMARK UNBOUND:                -0.312
REMARK SMILES C#CC[NH2+][C@@H]1CCc2ccccc21
REMARK SMILES IDX 1 1 2 2 3 3 4 4 5 7 6 8 13 9 7 10 12 11 8 12 11 13 9 14
REMARK SMILES IDX 10 15
REMARK H PARENT 4 5 4 6
ROOT
ATOM      1  C   UNL     1      22.552  32.554  19.955  1.00  0.00     0.010 C 
ATOM      2  C   UNL     1      21.880  31.656  20.387  1.00  0.00    -0.047 C 
ATOM      3  C   UNL     1      21.058  30.582  20.926  1.00  0.00     0.352 C 
ENDROOT
BRANCH   3   4
ATOM      4  N   UNL     1      21.398  29.279  20.291  1.00  0.00    -0.330 N 
ATOM      5  H   UNL     1      22.414  29.167  20.360  1.00  0.00     0.347 HD
ATOM      6  H   UNL     1      21.000  28.542  20.884  1.00  0.00     0.347 HD
BRANCH   4   7
ATOM      7  C   UNL     1      21.010  28.973  18.885  1.00  0.00     0.214 C 
ATOM      8  C   UNL     1      20.156  27.702  18.735  1.00  0.00     0.075 C 
ATOM      9  C   UNL     1      22.109  28.736  17.896  1.00  0.00     0.012 A 
ATOM     10  C   UNL     1      20.319  27.269  17.269  1.00  0.00     0.042 C 
ATOM     11  C   UNL     1      23.326  29.385  17.748  1.00  0.00     0.010 A 
ATOM     12  C   UNL     1      21.708  27.752  16.979  1.00  0.00    -0.039 A 
ATOM     13  C   UNL     1      24.158  29.004  16.693  1.00  0.00     0.001 A 
ATOM     14  C   UNL     1      22.522  27.379  15.923  1.00  0.00     0.004 A 
ATOM     15  C   UNL     1      23.761  28.006  15.790  1.00  0.00     0.000 A 
ENDBRANCH   4   7
ENDBRANCH   3   4
TORSDOF 2
ENDMDL
MODEL 5
REMARK VINA RESULT:    -6.742      1.405      2.252
REMARK INTER + INTRA:          -7.842
REMARK INTER:                  -7.411
REMARK INTRA:                  -0.431
REMARK UNBOUND:                -0.312
REMARK SMILES C#CC[NH2+][C@@H]1CCc2ccccc21
REMARK SMILES IDX 1 1 2 2 3 3 4 4 5 7 6 8 13 9 7 10 12 11 8 12 11 13 9 14
REMARK SMILES IDX 10 15
REMARK H PARENT 4 5 4 6
ROOT
ATOM      1  C   UNL     1      24.420  26.169  16.244  1.00  0.00     0.010 C 
ATOM      2  C   UNL     1      23.226  26.306  16.232  1.00  0.00    -0.047 C 
ATOM      3  C   UNL     1      21.778  26.454  16.206  1.00  0.00     0.352 C 
ENDROOT
BRANCH   3   4
ATOM      4  N   UNL     1      21.360  27.739  16.831  1.00  0.00    -0.330 N 
ATOM      5  H   UNL     1      21.603  28.487  16.174  1.00  0.00     0.347 HD
ATOM      6  H   UNL     1      20.335  27.735  16.873  1.00  0.00     0.347 HD
BRANCH   4   7
ATOM      7  C   UNL     1      21.857  28.149  18.174  1.00  0.00     0.214 C 
ATOM      8  C   UNL     1      20.742  28.534  19.162  1.00  0.00     0.075 C 
ATOM      9  C   UNL     1      22.769  29.333  18.248  1.00  0.00     0.012 A 
ATOM     10  C   UNL     1      21.422  29.406  20.231  1.00  0.00     0.042 C 
ATOM     11  C   UNL     1      23.806  29.710  17.406  1.00  0.00     0.010 A 
ATOM     12  C   UNL     1      22.507  30.053  19.425  1.00  0.00    -0.039 A 
ATOM     13  C   UNL     1      24.550  30.845  17.737  1.00  0.00     0.001 A 
ATOM     14  C   UNL     1      23.250  31.170  19.764  1.00  0.00     0.004 A 
ATOM     15  C   UNL     1      24.272  31.572  18.904  1.00  0.00     0.000 A 
ENDBRANCH   4   7
ENDBRANCH   3   4
TORSDOF 2
ENDMDL
MODEL 6
REMARK VINA RESULT:    -6.680      2.697      3.923
REMARK INTER + INTRA:          -7.773
REMARK INTER:                  -7.546
REMARK INTRA:                  -0.226
REMARK UNBOUND:                -0.312
REMARK SMILES C#CC[NH2+][C@@H]1CCc2ccccc21
REMARK SMILES IDX 1 1 2 2 3 3 4 4 5 7 6 8 13 9 7 10 12 11 8 12 11 13 9 14
REMARK SMILES IDX 10 15
REMARK H PARENT 4 5 4 6
ROOT
ATOM      1  C   UNL     1      26.361  34.772  18.816  1.00  0.00     0.010 C 
ATOM      2  C   UNL     1      26.368  33.585  18.627  1.00  0.00    -0.047 C 
ATOM      3  C   UNL     1      26.400  32.147  18.406  1.00  0.00     0.352 C 
ENDROOT
BRANCH   3   4
ATOM      4  N   UNL     1      25.131  31.674  17.786  1.00  0.00    -0.330 N 
ATOM      5  H   UNL     1      24.451  32.436  17.873  1.00  0.00     0.347 HD
ATOM      6  H   UNL     1      25.305  31.576  16.780  1.00  0.00     0.347 HD
BRANCH   4   7
ATOM      7  C   UNL     1      24.459  30.426  18.244  1.00  0.00     0.214 C 
ATOM      8  C   UNL     1      24.018  29.498  17.099  1.00  0.00     0.075 C 
ATOM      9  C   UNL     1      23.200  30.565  19.042  1.00  0.00     0.012 A 
ATOM     10  C   UNL     1      22.922  28.600  17.696  1.00  0.00     0.042 C 
ATOM     11  C   UNL     1      22.877  31.474  20.039  1.00  0.00     0.010 A 
ATOM     12  C   UNL     1      22.322  29.519  18.716  1.00  0.00    -0.039 A 
ATOM     13  C   UNL     1      21.640  31.349  20.676  1.00  0.00     0.001 A 
ATOM     14  C   UNL     1      21.100  29.383  19.353  1.00  0.00     0.004 A 
ATOM     15  C   UNL     1      20.756  30.314  20.332  1.00  0.00     0.000 A 
ENDBRANCH   4   7
ENDBRANCH   3   4
TORSDOF 2
ENDMDL
MODEL 7
REMARK VINA RESULT:    -6.662      1.304      2.088
REMARK INTER + INTRA:          -7.753
REMARK INTER:                  -7.504
REMARK INTRA:                  -0.249
REMARK UNBOUND:                -0.312
REMARK SMILES C#CC[NH2+][C@@H]1CCc2ccccc21
REMARK SMILES IDX 1 1 2 2 3 3 4 4 5 7 6 8 13 9 7 10 12 11 8 12 11 13 9 14
REMARK SMILES IDX 10 15
REMARK H PARENT 4 5 4 6
ROOT
ATOM      1  C   UNL     1      21.508  24.850  14.155  1.00  0.00     0.010 C 
ATOM      2  C   UNL     1      22.251  25.685  14.595  1.00  0.00    -0.047 C 
ATOM      3  C   UNL     1      23.170  26.684  15.122  1.00  0.00     0.352 C 
ENDROOT
BRANCH   3   4
ATOM      4  N   UNL     1      22.431  27.785  15.801  1.00  0.00    -0.330 N 
ATOM      5  H   UNL     1      23.037  28.611  15.781  1.00  0.00     0.347 HD
ATOM      6  H   UNL     1      21.629  28.020  15.206  1.00  0.00     0.347 HD
BRANCH   4   7
ATOM      7  C   UNL     1      21.923  27.638  17.193  1.00  0.00     0.214 C 
ATOM      8  C   UNL     1      20.403  27.420  17.284  1.00  0.00     0.075 C 
ATOM      9  C   UNL     1      22.136  28.780  18.136  1.00  0.00     0.012 A 
ATOM     10  C   UNL     1      20.013  27.827  18.714  1.00  0.00     0.042 C 
ATOM     11  C   UNL     1      23.239  29.608  18.295  1.00  0.00     0.010 A 
ATOM     12  C   UNL     1      21.034  28.887  18.999  1.00  0.00    -0.039 A 
ATOM     13  C   UNL     1      23.205  30.575  19.302  1.00  0.00     0.001 A 
ATOM     14  C   UNL     1      21.000  29.835  20.008  1.00  0.00     0.004 A 
ATOM     15  C   UNL     1      22.092  30.690  20.149  1.00  0.00     0.000 A 
ENDBRANCH   4   7
ENDBRANCH   3   4
TORSDOF 2
ENDMDL
MODEL 8
REMARK VINA RESULT:    -6.660      1.817      3.603
REMARK INTER + INTRA:          -7.750
REMARK INTER:                  -7.355
REMARK INTRA:                  -0.396
REMARK UNBOUND:                -0.312
REMARK SMILES C#CC[NH2+][C@@H]1CCc2ccccc21
REMARK SMILES IDX 1 1 2 2 3 3 4 4 5 7 6 8 13 9 7 10 12 11 8 12 11 13 9 14
REMARK SMILES IDX 10 15
REMARK H PARENT 4 5 4 6
ROOT
ATOM      1  C   UNL     1      22.025  25.474  19.990  1.00  0.00     0.010 C 
ATOM      2  C   UNL     1      21.112  25.449  19.209  1.00  0.00    -0.047 C 
ATOM      3  C   UNL     1      20.009  25.395  18.261  1.00  0.00     0.352 C 
ENDROOT
BRANCH   3   4
ATOM      4  N   UNL     1      19.496  26.761  17.961  1.00  0.00    -0.330 N 
ATOM      5  H   UNL     1      18.698  26.650  17.327  1.00  0.00     0.347 HD
ATOM      6  H   UNL     1      19.103  27.133  18.832  1.00  0.00     0.347 HD
BRANCH   4   7
ATOM      7  C   UNL     1      20.378  27.815  17.385  1.00  0.00     0.214 C 
ATOM      8  C   UNL     1      21.479  27.270  16.459  1.00  0.00     0.075 C 
ATOM      9  C   UNL     1      21.158  28.666  18.338  1.00  0.00     0.012 A 
ATOM     10  C   UNL     1      22.558  28.365  16.415  1.00  0.00     0.042 C 
ATOM     11  C   UNL     1      20.779  29.211  19.557  1.00  0.00     0.010 A 
ATOM     12  C   UNL     1      22.409  28.970  17.778  1.00  0.00    -0.039 A 
ATOM     13  C   UNL     1      21.689  30.029  20.230  1.00  0.00     0.001 A 
ATOM     14  C   UNL     1      23.309  29.791  18.433  1.00  0.00     0.004 A 
ATOM     15  C   UNL     1      22.946  30.314  19.674  1.00  0.00     0.000 A 
ENDBRANCH   4   7
ENDBRANCH   3   4
TORSDOF 2
ENDMDL
MODEL 9
REMARK VINA RESULT:    -6.637      1.296      3.872
REMARK INTER + INTRA:          -7.724
REMARK INTER:                  -7.318
REMARK INTRA:                  -0.407
REMARK UNBOUND:                -0.312
REMARK SMILES C#CC[NH2+][C@@H]1CCc2ccccc21
REMARK SMILES IDX 1 1 2 2 3 3 4 4 5 7 6 8 13 9 7 10 12 11 8 12 11 13 9 14
REMARK SMILES IDX 10 15
REMARK H PARENT 4 5 4 6
ROOT
ATOM      1  C   UNL     1      19.561  27.417  18.491  1.00  0.00     0.010 C 
ATOM      2  C   UNL     1      20.362  26.832  17.813  1.00  0.00    -0.047 C 
ATOM      3  C   UNL     1      21.316  26.108  16.984  1.00  0.00     0.352 C 
ENDROOT
BRANCH   3   4
ATOM      4  N   UNL     1      22.692  26.650  17.156  1.00  0.00    -0.330 N 
ATOM      5  H   UNL     1      22.872  26.701  18.164  1.00  0.00     0.347 HD
ATOM      6  H   UNL     1      23.342  25.942  16.798  1.00  0.00     0.347 HD
BRANCH   4   7
ATOM      7  C   UNL     1      23.092  27.958  16.567  1.00  0.00     0.214 C 
ATOM      8  C   UNL     1      24.392  27.901  15.745  1.00  0.00     0.075 C 
ATOM      9  C   UNL     1      23.362  29.092  17.506  1.00  0.00     0.012 A 
ATOM     10  C   UNL     1      24.910  29.348  15.693  1.00  0.00     0.042 C 
ATOM     11  C   UNL     1      22.692  29.466  18.662  1.00  0.00     0.010 A 
ATOM     12  C   UNL     1      24.410  29.879  17.002  1.00  0.00    -0.039 A 
ATOM     13  C   UNL     1      23.116  30.616  19.333  1.00  0.00     0.001 A 
ATOM     14  C   UNL     1      24.825  31.026  17.655  1.00  0.00     0.004 A 
ATOM     15  C   UNL     1      24.177  31.387  18.836  1.00  0.00     0.000 A 
ENDBRANCH   4   7
ENDBRANCH   3   4
TORSDOF 2
ENDMDL
