MODEL 1
REMARK VINA RESULT:    -8.083      0.000      0.000
REMARK INTER + INTRA:         -13.104
REMARK INTER:                 -11.627
REMARK INTRA:                  -1.476
REMARK UNBOUND:                -1.476
REMARK SMILES O=c1c(O[C@@H]2O[C@H](CO)[C@@H](O)[C@H](O)[C@H]2O)c(-c2ccc(O)cc2)oc2cc(O)cc(O)c12
REMARK SMILES IDX 4 1 3 2 1 3 2 4 32 5 16 6 30 7 25 8 24 9 29 10 26 11 27 12
REMARK SMILES IDX 17 13 18 14 23 15 19 16 22 17 20 18 21 19 31 21 28 23 5 25
REMARK SMILES IDX 6 26 14 27 7 28 12 29 10 30 15 31 8 33 9 34 13 36 11 38
REMARK H PARENT 21 20 31 22 28 24 15 32 9 35 13 37 11 39
ROOT
ATOM      1  O   UNL     1      21.805 -25.622  40.723  1.00  0.00    -0.454 OA
ENDROOT
BRANCH   1   2
ATOM      2  C   UNL     1      21.120 -25.043  41.774  1.00  0.00     0.214 A 
ATOM      3  O   UNL     1      19.834 -23.800  40.261  1.00  0.00    -0.285 OA
ATOM      4  C   UNL     1      20.079 -24.034  41.441  1.00  0.00     0.239 A 
ATOM      5  C   UNL     1      19.393 -23.385  42.581  1.00  0.00     0.111 A 
ATOM      6  C   UNL     1      21.378 -25.313  43.066  1.00  0.00     0.180 A 
ATOM      7  C   UNL     1      18.405 -22.403  42.423  1.00  0.00     0.134 A 
ATOM      8  C   UNL     1      19.752 -23.786  43.870  1.00  0.00     0.146 A 
ATOM      9  O   UNL     1      20.704 -24.738  44.129  1.00  0.00    -0.452 OA
ATOM     10  C   UNL     1      17.791 -21.834  43.541  1.00  0.00     0.093 A 
ATOM     11  C   UNL     1      19.139 -23.220  44.992  1.00  0.00     0.094 A 
ATOM     12  C   UNL     1      18.164 -22.248  44.815  1.00  0.00     0.123 A 
BRANCH   6  13
ATOM     13  C   UNL     1      22.383 -26.310  43.487  1.00  0.00     0.021 A 
ATOM     14  C   UNL     1      22.011 -27.589  43.931  1.00  0.00     0.016 A 
ATOM     15  C   UNL     1      23.748 -25.986  43.435  1.00  0.00     0.016 A 
ATOM     16  C   UNL     1      22.977 -28.516  44.333  1.00  0.00     0.047 A 
ATOM     17  C   UNL     1      24.714 -26.912  43.833  1.00  0.00     0.047 A 
ATOM     18  C   UNL     1      24.321 -28.167  44.281  1.00  0.00     0.115 A 
BRANCH  18  19
ATOM     19  O   UNL     1      25.297 -29.039  44.664  1.00  0.00    -0.508 OA
ATOM     20  H   UNL     1      26.012 -29.013  44.007  1.00  0.00     0.293 HD
ENDBRANCH  18  19
ENDBRANCH   6  13
BRANCH   7  21
ATOM     21  O   UNL     1      18.027 -21.983  41.180  1.00  0.00    -0.507 OA
ATOM     22  H   UNL     1      18.761 -22.087  40.553  1.00  0.00     0.293 HD
ENDBRANCH   7  21
BRANCH  12  23
ATOM     23  O   UNL     1      17.538 -21.665  45.877  1.00  0.00    -0.508 OA
ATOM     24  H   UNL     1      17.618 -22.244  46.654  1.00  0.00     0.293 HD
ENDBRANCH  12  23
ENDBRANCH   1   2
BRANCH   1  25
ATOM     25  C   UNL     1      21.113 -26.775  40.208  1.00  0.00     0.339 C 
ATOM     26  O   UNL     1      21.923 -27.917  40.473  1.00  0.00    -0.332 OA
ATOM     27  C   UNL     1      20.963 -26.579  38.680  1.00  0.00     0.214 C 
ATOM     28  C   UNL     1      21.289 -29.160  40.108  1.00  0.00     0.179 C 
ATOM     29  C   UNL     1      20.758 -27.920  37.944  1.00  0.00     0.180 C 
ATOM     30  C   UNL     1      20.332 -29.039  38.903  1.00  0.00     0.177 C 
BRANCH  27  31
ATOM     31  O   UNL     1      19.857 -25.717  38.357  1.00  0.00    -0.384 OA
ATOM     32  H   UNL     1      19.086 -26.283  38.116  1.00  0.00     0.211 HD
ENDBRANCH  27  31
BRANCH  28  33
ATOM     33  C   UNL     1      22.431 -30.149  39.844  1.00  0.00     0.191 C 
BRANCH  33  34
ATOM     34  O   UNL     1      22.120 -30.945  38.696  1.00  0.00    -0.394 OA
ATOM     35  H   UNL     1      21.718 -31.765  39.047  1.00  0.00     0.210 HD
ENDBRANCH  33  34
ENDBRANCH  28  33
BRANCH  29  36
ATOM     36  O   UNL     1      21.945 -28.315  37.249  1.00  0.00    -0.387 OA
ATOM     37  H   UNL     1      21.660 -28.790  36.447  1.00  0.00     0.211 HD
ENDBRANCH  29  36
BRANCH  30  38
ATOM     38  O   UNL     1      19.016 -28.756  39.411  1.00  0.00    -0.387 OA
ATOM     39  H   UNL     1      18.431 -28.586  38.650  1.00  0.00     0.211 HD
ENDBRANCH  30  38
ENDBRANCH   1  25
TORSDOF 11
ENDMDL
MODEL 2
REMARK VINA RESULT:    -7.954      1.738      6.475
REMARK INTER + INTRA:         -12.918
REMARK INTER:                 -13.054
REMARK INTRA:                   0.136
REMARK UNBOUND:                -1.476
REMARK SMILES O=c1c(O[C@@H]2O[C@H](CO)[C@@H](O)[C@H](O)[C@H]2O)c(-c2ccc(O)cc2)oc2cc(O)cc(O)c12
REMARK SMILES IDX 4 1 3 2 1 3 2 4 32 5 16 6 30 7 25 8 24 9 29 10 26 11 27 12
REMARK SMILES IDX 17 13 18 14 23 15 19 16 22 17 20 18 21 19 31 21 28 23 5 25
REMARK SMILES IDX 6 26 14 27 7 28 12 29 10 30 15 31 8 33 9 34 13 36 11 38
REMARK H PARENT 21 20 31 22 28 24 15 32 9 35 13 37 11 39
ROOT
ATOM      1  O   UNL     1      22.172 -25.934  41.111  1.00  0.00    -0.454 OA
ENDROOT
BRANCH   1   2
ATOM      2  C   UNL     1      21.913 -27.071  40.369  1.00  0.00     0.214 A 
ATOM      3  O   UNL     1      20.731 -25.790  38.804  1.00  0.00    -0.285 OA
ATOM      4  C   UNL     1      21.092 -26.914  39.138  1.00  0.00     0.239 A 
ATOM      5  C   UNL     1      20.780 -28.150  38.385  1.00  0.00     0.111 A 
ATOM      6  C   UNL     1      22.325 -28.301  40.727  1.00  0.00     0.180 A 
ATOM      7  C   UNL     1      20.003 -28.161  37.219  1.00  0.00     0.134 A 
ATOM      8  C   UNL     1      21.298 -29.354  38.868  1.00  0.00     0.146 A 
ATOM      9  O   UNL     1      22.069 -29.448  39.998  1.00  0.00    -0.452 OA
ATOM     10  C   UNL     1      19.750 -29.362  36.551  1.00  0.00     0.093 A 
ATOM     11  C   UNL     1      21.048 -30.558  38.203  1.00  0.00     0.094 A 
ATOM     12  C   UNL     1      20.275 -30.549  37.049  1.00  0.00     0.123 A 
BRANCH   6  13
ATOM     13  C   UNL     1      23.154 -28.546  41.924  1.00  0.00     0.021 A 
ATOM     14  C   UNL     1      23.168 -27.652  43.007  1.00  0.00     0.016 A 
ATOM     15  C   UNL     1      23.944 -29.704  41.998  1.00  0.00     0.016 A 
ATOM     16  C   UNL     1      23.965 -27.898  44.128  1.00  0.00     0.047 A 
ATOM     17  C   UNL     1      24.738 -29.952  43.119  1.00  0.00     0.047 A 
ATOM     18  C   UNL     1      24.745 -29.047  44.172  1.00  0.00     0.115 A 
BRANCH  18  19
ATOM     19  O   UNL     1      25.539 -29.327  45.244  1.00  0.00    -0.508 OA
ATOM     20  H   UNL     1      26.152 -30.039  45.000  1.00  0.00     0.293 HD
ENDBRANCH  18  19
ENDBRANCH   6  13
BRANCH   7  21
ATOM     21  O   UNL     1      19.478 -27.006  36.715  1.00  0.00    -0.507 OA
ATOM     22  H   UNL     1      18.543 -27.134  36.486  1.00  0.00     0.293 HD
ENDBRANCH   7  21
BRANCH  12  23
ATOM     23  O   UNL     1      20.003 -31.697  36.366  1.00  0.00    -0.508 OA
ATOM     24  H   UNL     1      19.097 -31.985  36.569  1.00  0.00     0.293 HD
ENDBRANCH  12  23
ENDBRANCH   1   2
BRANCH   1  25
ATOM     25  C   UNL     1      20.962 -25.228  41.440  1.00  0.00     0.339 C 
ATOM     26  O   UNL     1      21.310 -23.868  41.682  1.00  0.00    -0.332 OA
ATOM     27  C   UNL     1      20.393 -25.864  42.732  1.00  0.00     0.214 C 
ATOM     28  C   UNL     1      20.165 -23.021  41.913  1.00  0.00     0.179 C 
ATOM     29  C   UNL     1      19.455 -24.898  43.485  1.00  0.00     0.180 C 
ATOM     30  C   UNL     1      18.982 -23.745  42.590  1.00  0.00     0.177 C 
BRANCH  27  31
ATOM     31  O   UNL     1      19.664 -27.073  42.456  1.00  0.00    -0.384 OA
ATOM     32  H   UNL     1      18.830 -27.057  42.983  1.00  0.00     0.211 HD
ENDBRANCH  27  31
BRANCH  28  33
ATOM     33  C   UNL     1      20.679 -21.843  42.749  1.00  0.00     0.191 C 
BRANCH  33  34
ATOM     34  O   UNL     1      21.945 -22.180  43.325  1.00  0.00    -0.394 OA
ATOM     35  H   UNL     1      22.223 -21.390  43.829  1.00  0.00     0.210 HD
ENDBRANCH  33  34
ENDBRANCH  28  33
BRANCH  29  36
ATOM     36  O   UNL     1      20.090 -24.365  44.652  1.00  0.00    -0.387 OA
ATOM     37  H   UNL     1      20.261 -23.422  44.477  1.00  0.00     0.211 HD
ENDBRANCH  29  36
BRANCH  30  38
ATOM     38  O   UNL     1      18.130 -24.264  41.555  1.00  0.00    -0.387 OA
ATOM     39  H   UNL     1      17.231 -23.919  41.703  1.00  0.00     0.211 HD
ENDBRANCH  30  38
ENDBRANCH   1  25
TORSDOF 11
ENDMDL
MODEL 3
REMARK VINA RESULT:    -7.756      3.052      6.514
REMARK INTER + INTRA:         -12.632
REMARK INTER:                 -11.192
REMARK INTRA:                  -1.440
REMARK UNBOUND:                -1.476
REMARK SMILES O=c1c(O[C@@H]2O[C@H](CO)[C@@H](O)[C@H](O)[C@H]2O)c(-c2ccc(O)cc2)oc2cc(O)cc(O)c12
REMARK SMILES IDX 4 1 3 2 1 3 2 4 32 5 16 6 30 7 25 8 24 9 29 10 26 11 27 12
REMARK SMILES IDX 17 13 18 14 23 15 19 16 22 17 20 18 21 19 31 21 28 23 5 25
REMARK SMILES IDX 6 26 14 27 7 28 12 29 10 30 15 31 8 33 9 34 13 36 11 38
REMARK H PARENT 21 20 31 22 28 24 15 32 9 35 13 37 11 39
ROOT
ATOM      1  O   UNL     1      19.525 -28.470  38.766  1.00  0.00    -0.454 OA
ENDROOT
BRANCH   1   2
ATOM      2  C   UNL     1      20.310 -27.727  39.626  1.00  0.00     0.214 A 
ATOM      3  O   UNL     1      21.524 -29.649  40.191  1.00  0.00    -0.285 OA
ATOM      4  C   UNL     1      21.360 -28.449  40.393  1.00  0.00     0.239 A 
ATOM      5  C   UNL     1      22.156 -27.647  41.349  1.00  0.00     0.111 A 
ATOM      6  C   UNL     1      20.141 -26.408  39.833  1.00  0.00     0.180 A 
ATOM      7  C   UNL     1      23.166 -28.192  42.154  1.00  0.00     0.134 A 
ATOM      8  C   UNL     1      21.880 -26.280  41.439  1.00  0.00     0.146 A 
ATOM      9  O   UNL     1      20.915 -25.652  40.695  1.00  0.00    -0.452 OA
ATOM     10  C   UNL     1      23.885 -27.378  43.033  1.00  0.00     0.093 A 
ATOM     11  C   UNL     1      22.598 -25.462  42.316  1.00  0.00     0.094 A 
ATOM     12  C   UNL     1      23.594 -26.021  43.105  1.00  0.00     0.123 A 
BRANCH   6  13
ATOM     13  C   UNL     1      19.133 -25.611  39.106  1.00  0.00     0.021 A 
ATOM     14  C   UNL     1      17.774 -25.643  39.458  1.00  0.00     0.016 A 
ATOM     15  C   UNL     1      19.533 -24.787  38.041  1.00  0.00     0.016 A 
ATOM     16  C   UNL     1      16.833 -24.886  38.752  1.00  0.00     0.047 A 
ATOM     17  C   UNL     1      18.595 -24.029  37.339  1.00  0.00     0.047 A 
ATOM     18  C   UNL     1      17.254 -24.087  37.697  1.00  0.00     0.115 A 
BRANCH  18  19
ATOM     19  O   UNL     1      16.372 -23.334  36.980  1.00  0.00    -0.508 OA
ATOM     20  H   UNL     1      16.284 -22.467  37.409  1.00  0.00     0.293 HD
ENDBRANCH  18  19
ENDBRANCH   6  13
BRANCH   7  21
ATOM     21  O   UNL     1      23.465 -29.523  42.097  1.00  0.00    -0.507 OA
ATOM     22  H   UNL     1      22.667 -30.038  41.891  1.00  0.00     0.293 HD
ENDBRANCH   7  21
BRANCH  12  23
ATOM     23  O   UNL     1      24.321 -25.265  43.977  1.00  0.00    -0.508 OA
ATOM     24  H   UNL     1      24.674 -24.488  43.511  1.00  0.00     0.293 HD
ENDBRANCH  12  23
ENDBRANCH   1   2
BRANCH   1  25
ATOM     25  C   UNL     1      19.924 -28.291  37.394  1.00  0.00     0.339 C 
ATOM     26  O   UNL     1      18.764 -27.924  36.653  1.00  0.00    -0.332 OA
ATOM     27  C   UNL     1      20.463 -29.652  36.889  1.00  0.00     0.214 C 
ATOM     28  C   UNL     1      19.048 -27.602  35.276  1.00  0.00     0.179 C 
ATOM     29  C   UNL     1      20.402 -29.760  35.351  1.00  0.00     0.180 C 
ATOM     30  C   UNL     1      20.238 -28.387  34.686  1.00  0.00     0.177 C 
BRANCH  27  31
ATOM     31  O   UNL     1      21.823 -29.874  37.301  1.00  0.00    -0.384 OA
ATOM     32  H   UNL     1      21.875 -30.763  37.726  1.00  0.00     0.211 HD
ENDBRANCH  27  31
BRANCH  28  33
ATOM     33  C   UNL     1      17.745 -27.861  34.510  1.00  0.00     0.191 C 
BRANCH  33  34
ATOM     34  O   UNL     1      18.032 -28.584  33.309  1.00  0.00    -0.394 OA
ATOM     35  H   UNL     1      18.174 -29.511  33.588  1.00  0.00     0.210 HD
ENDBRANCH  33  34
ENDBRANCH  28  33
BRANCH  29  36
ATOM     36  O   UNL     1      19.337 -30.621  34.935  1.00  0.00    -0.387 OA
ATOM     37  H   UNL     1      18.675 -30.060  34.492  1.00  0.00     0.211 HD
ENDBRANCH  29  36
BRANCH  30  38
ATOM     38  O   UNL     1      21.429 -27.610  34.899  1.00  0.00    -0.387 OA
ATOM     39  H   UNL     1      21.716 -27.256  34.037  1.00  0.00     0.211 HD
ENDBRANCH  30  38
ENDBRANCH   1  25
TORSDOF 11
ENDMDL
MODEL 4
REMARK VINA RESULT:    -7.614      2.536      6.680
REMARK INTER + INTRA:         -12.429
REMARK INTER:                 -11.663
REMARK INTRA:                  -0.765
REMARK UNBOUND:                -1.476
REMARK SMILES O=c1c(O[C@@H]2O[C@H](CO)[C@@H](O)[C@H](O)[C@H]2O)c(-c2ccc(O)cc2)oc2cc(O)cc(O)c12
REMARK SMILES IDX 4 1 3 2 1 3 2 4 32 5 16 6 30 7 25 8 24 9 29 10 26 11 27 12
REMARK SMILES IDX 17 13 18 14 23 15 19 16 22 17 20 18 21 19 31 21 28 23 5 25
REMARK SMILES IDX 6 26 14 27 7 28 12 29 10 30 15 31 8 33 9 34 13 36 11 38
REMARK H PARENT 21 20 31 22 28 24 15 32 9 35 13 37 11 39
ROOT
ATOM      1  O   UNL     1      20.738 -25.426  39.291  1.00  0.00    -0.454 OA
ENDROOT
BRANCH   1   2
ATOM      2  C   UNL     1      20.723 -26.803  39.402  1.00  0.00     0.214 A 
ATOM      3  O   UNL     1      20.112 -26.986  37.148  1.00  0.00    -0.285 OA
ATOM      4  C   UNL     1      20.341 -27.584  38.195  1.00  0.00     0.239 A 
ATOM      5  C   UNL     1      20.280 -29.055  38.347  1.00  0.00     0.111 A 
ATOM      6  C   UNL     1      20.991 -27.458  40.546  1.00  0.00     0.180 A 
ATOM      7  C   UNL     1      19.916 -29.919  37.305  1.00  0.00     0.134 A 
ATOM      8  C   UNL     1      20.608 -29.595  39.593  1.00  0.00     0.146 A 
ATOM      9  O   UNL     1      20.976 -28.835  40.673  1.00  0.00    -0.452 OA
ATOM     10  C   UNL     1      19.883 -31.300  37.512  1.00  0.00     0.093 A 
ATOM     11  C   UNL     1      20.577 -30.977  39.805  1.00  0.00     0.094 A 
ATOM     12  C   UNL     1      20.214 -31.816  38.760  1.00  0.00     0.123 A 
BRANCH   6  13
ATOM     13  C   UNL     1      21.392 -26.764  41.786  1.00  0.00     0.021 A 
ATOM     14  C   UNL     1      20.442 -26.272  42.695  1.00  0.00     0.016 A 
ATOM     15  C   UNL     1      22.755 -26.596  42.081  1.00  0.00     0.016 A 
ATOM     16  C   UNL     1      20.841 -25.611  43.860  1.00  0.00     0.047 A 
ATOM     17  C   UNL     1      23.154 -25.939  43.245  1.00  0.00     0.047 A 
ATOM     18  C   UNL     1      22.196 -25.449  44.123  1.00  0.00     0.115 A 
BRANCH  18  19
ATOM     19  O   UNL     1      22.630 -24.810  45.246  1.00  0.00    -0.508 OA
ATOM     20  H   UNL     1      23.599 -24.869  45.283  1.00  0.00     0.293 HD
ENDBRANCH  18  19
ENDBRANCH   6  13
BRANCH   7  21
ATOM     21  O   UNL     1      19.587 -29.432  36.073  1.00  0.00    -0.507 OA
ATOM     22  H   UNL     1      19.307 -30.156  35.489  1.00  0.00     0.293 HD
ENDBRANCH   7  21
BRANCH  12  23
ATOM     23  O   UNL     1      20.169 -33.169  38.917  1.00  0.00    -0.508 OA
ATOM     24  H   UNL     1      20.594 -33.410  39.757  1.00  0.00     0.293 HD
ENDBRANCH  12  23
ENDBRANCH   1   2
BRANCH   1  25
ATOM     25  C   UNL     1      19.476 -24.918  38.820  1.00  0.00     0.339 C 
ATOM     26  O   UNL     1      19.753 -23.899  37.863  1.00  0.00    -0.332 OA
ATOM     27  C   UNL     1      18.739 -24.310  40.038  1.00  0.00     0.214 C 
ATOM     28  C   UNL     1      18.567 -23.381  37.225  1.00  0.00     0.179 C 
ATOM     29  C   UNL     1      17.679 -23.274  39.612  1.00  0.00     0.180 C 
ATOM     30  C   UNL     1      17.315 -23.404  38.127  1.00  0.00     0.177 C 
BRANCH  27  31
ATOM     31  O   UNL     1      18.087 -25.321  40.827  1.00  0.00    -0.384 OA
ATOM     32  H   UNL     1      17.354 -25.706  40.290  1.00  0.00     0.211 HD
ENDBRANCH  27  31
BRANCH  28  33
ATOM     33  C   UNL     1      18.925 -21.963  36.766  1.00  0.00     0.191 C 
BRANCH  33  34
ATOM     34  O   UNL     1      19.966 -21.439  37.596  1.00  0.00    -0.394 OA
ATOM     35  H   UNL     1      20.257 -22.187  38.156  1.00  0.00     0.210 HD
ENDBRANCH  33  34
ENDBRANCH  28  33
BRANCH  29  36
ATOM     36  O   UNL     1      18.123 -21.940  39.878  1.00  0.00    -0.387 OA
ATOM     37  H   UNL     1      19.053 -21.888  39.592  1.00  0.00     0.211 HD
ENDBRANCH  29  36
BRANCH  30  38
ATOM     38  O   UNL     1      16.637 -24.654  37.911  1.00  0.00    -0.387 OA
ATOM     39  H   UNL     1      15.734 -24.572  38.269  1.00  0.00     0.211 HD
ENDBRANCH  30  38
ENDBRANCH   1  25
TORSDOF 11
ENDMDL
MODEL 5
REMARK VINA RESULT:    -7.373      2.542      6.388
REMARK INTER + INTRA:         -12.082
REMARK INTER:                 -11.320
REMARK INTRA:                  -0.761
REMARK UNBOUND:                -1.476
REMARK SMILES O=c1c(O[C@@H]2O[C@H](CO)[C@@H](O)[C@H](O)[C@H]2O)c(-c2ccc(O)cc2)oc2cc(O)cc(O)c12
REMARK SMILES IDX 4 1 3 2 1 3 2 4 32 5 16 6 30 7 25 8 24 9 29 10 26 11 27 12
REMARK SMILES IDX 17 13 18 14 23 15 19 16 22 17 20 18 21 19 31 21 28 23 5 25
REMARK SMILES IDX 6 26 14 27 7 28 12 29 10 30 15 31 8 33 9 34 13 36 11 38
REMARK H PARENT 21 20 31 22 28 24 15 32 9 35 13 37 11 39
ROOT
ATOM      1  O   UNL     1      19.069 -27.243  40.087  1.00  0.00    -0.454 OA
ENDROOT
BRANCH   1   2
ATOM      2  C   UNL     1      20.219 -27.601  40.765  1.00  0.00     0.214 A 
ATOM      3  O   UNL     1      19.818 -25.920  42.347  1.00  0.00    -0.285 OA
ATOM      4  C   UNL     1      20.576 -26.810  41.973  1.00  0.00     0.239 A 
ATOM      5  C   UNL     1      21.838 -27.173  42.657  1.00  0.00     0.111 A 
ATOM      6  C   UNL     1      21.040 -28.588  40.364  1.00  0.00     0.180 A 
ATOM      7  C   UNL     1      22.314 -26.506  43.793  1.00  0.00     0.134 A 
ATOM      8  C   UNL     1      22.576 -28.239  42.136  1.00  0.00     0.146 A 
ATOM      9  O   UNL     1      22.195 -28.955  41.030  1.00  0.00    -0.452 OA
ATOM     10  C   UNL     1      23.511 -26.902  44.395  1.00  0.00     0.093 A 
ATOM     11  C   UNL     1      23.774 -28.640  42.735  1.00  0.00     0.094 A 
ATOM     12  C   UNL     1      24.229 -27.965  43.860  1.00  0.00     0.123 A 
BRANCH   6  13
ATOM     13  C   UNL     1      20.755 -29.433  39.186  1.00  0.00     0.021 A 
ATOM     14  C   UNL     1      21.133 -29.042  37.892  1.00  0.00     0.016 A 
ATOM     15  C   UNL     1      20.101 -30.663  39.354  1.00  0.00     0.016 A 
ATOM     16  C   UNL     1      20.848 -29.852  36.788  1.00  0.00     0.047 A 
ATOM     17  C   UNL     1      19.819 -31.474  38.253  1.00  0.00     0.047 A 
ATOM     18  C   UNL     1      20.191 -31.061  36.980  1.00  0.00     0.115 A 
BRANCH  18  19
ATOM     19  O   UNL     1      19.892 -31.881  35.934  1.00  0.00    -0.508 OA
ATOM     20  H   UNL     1      20.666 -31.936  35.350  1.00  0.00     0.293 HD
ENDBRANCH  18  19
ENDBRANCH   6  13
BRANCH   7  21
ATOM     21  O   UNL     1      21.623 -25.459  44.332  1.00  0.00    -0.507 OA
ATOM     22  H   UNL     1      21.608 -25.530  45.301  1.00  0.00     0.293 HD
ENDBRANCH   7  21
BRANCH  12  23
ATOM     23  O   UNL     1      25.391 -28.318  44.480  1.00  0.00    -0.508 OA
ATOM     24  H   UNL     1      26.118 -28.298  43.835  1.00  0.00     0.293 HD
ENDBRANCH  12  23
ENDBRANCH   1   2
BRANCH   1  25
ATOM     25  C   UNL     1      19.042 -25.834  39.793  1.00  0.00     0.339 C 
ATOM     26  O   UNL     1      17.713 -25.374  40.015  1.00  0.00    -0.332 OA
ATOM     27  C   UNL     1      19.417 -25.666  38.301  1.00  0.00     0.214 C 
ATOM     28  C   UNL     1      17.574 -23.945  39.865  1.00  0.00     0.179 C 
ATOM     29  C   UNL     1      18.904 -24.330  37.724  1.00  0.00     0.180 C 
ATOM     30  C   UNL     1      18.541 -23.331  38.832  1.00  0.00     0.177 C 
BRANCH  27  31
ATOM     31  O   UNL     1      20.839 -25.727  38.096  1.00  0.00    -0.384 OA
ATOM     32  H   UNL     1      21.008 -26.164  37.228  1.00  0.00     0.211 HD
ENDBRANCH  27  31
BRANCH  28  33
ATOM     33  C   UNL     1      16.105 -23.705  39.499  1.00  0.00     0.191 C 
BRANCH  33  34
ATOM     34  O   UNL     1      15.558 -24.889  38.909  1.00  0.00    -0.394 OA
ATOM     35  H   UNL     1      15.367 -25.490  39.656  1.00  0.00     0.210 HD
ENDBRANCH  33  34
ENDBRANCH  28  33
BRANCH  29  36
ATOM     36  O   UNL     1      17.769 -24.534  36.877  1.00  0.00    -0.387 OA
ATOM     37  H   UNL     1      16.997 -24.165  37.343  1.00  0.00     0.211 HD
ENDBRANCH  29  36
BRANCH  30  38
ATOM     38  O   UNL     1      19.737 -22.935  39.526  1.00  0.00    -0.387 OA
ATOM     39  H   UNL     1      19.573 -23.024  40.482  1.00  0.00     0.211 HD
ENDBRANCH  30  38
ENDBRANCH   1  25
TORSDOF 11
ENDMDL
MODEL 6
REMARK VINA RESULT:    -7.318      1.982      7.588
REMARK INTER + INTRA:         -12.002
REMARK INTER:                 -12.063
REMARK INTRA:                   0.060
REMARK UNBOUND:                -1.476
REMARK SMILES O=c1c(O[C@@H]2O[C@H](CO)[C@@H](O)[C@H](O)[C@H]2O)c(-c2ccc(O)cc2)oc2cc(O)cc(O)c12
REMARK SMILES IDX 4 1 3 2 1 3 2 4 32 5 16 6 30 7 25 8 24 9 29 10 26 11 27 12
REMARK SMILES IDX 17 13 18 14 23 15 19 16 22 17 20 18 21 19 31 21 28 23 5 25
REMARK SMILES IDX 6 26 14 27 7 28 12 29 10 30 15 31 8 33 9 34 13 36 11 38
REMARK H PARENT 21 20 31 22 28 24 15 32 9 35 13 37 11 39
ROOT
ATOM      1  O   UNL     1      20.448 -25.481  41.993  1.00  0.00    -0.454 OA
ENDROOT
BRANCH   1   2
ATOM      2  C   UNL     1      21.271 -26.591  41.963  1.00  0.00     0.214 A 
ATOM      3  O   UNL     1      22.176 -25.985  44.037  1.00  0.00    -0.285 OA
ATOM      4  C   UNL     1      22.209 -26.779  43.102  1.00  0.00     0.239 A 
ATOM      5  C   UNL     1      23.120 -27.944  43.028  1.00  0.00     0.111 A 
ATOM      6  C   UNL     1      21.294 -27.470  40.946  1.00  0.00     0.180 A 
ATOM      7  C   UNL     1      24.070 -28.239  44.015  1.00  0.00     0.134 A 
ATOM      8  C   UNL     1      23.012 -28.784  41.917  1.00  0.00     0.146 A 
ATOM      9  O   UNL     1      22.115 -28.582  40.900  1.00  0.00    -0.452 OA
ATOM     10  C   UNL     1      24.896 -29.358  43.888  1.00  0.00     0.093 A 
ATOM     11  C   UNL     1      23.836 -29.906  41.785  1.00  0.00     0.094 A 
ATOM     12  C   UNL     1      24.772 -30.180  42.774  1.00  0.00     0.123 A 
BRANCH   6  13
ATOM     13  C   UNL     1      20.388 -27.368  39.783  1.00  0.00     0.021 A 
ATOM     14  C   UNL     1      19.162 -28.049  39.742  1.00  0.00     0.016 A 
ATOM     15  C   UNL     1      20.748 -26.564  38.690  1.00  0.00     0.016 A 
ATOM     16  C   UNL     1      18.322 -27.945  38.630  1.00  0.00     0.047 A 
ATOM     17  C   UNL     1      19.909 -26.457  37.580  1.00  0.00     0.047 A 
ATOM     18  C   UNL     1      18.706 -27.151  37.557  1.00  0.00     0.115 A 
BRANCH  18  19
ATOM     19  O   UNL     1      17.920 -27.021  36.451  1.00  0.00    -0.508 OA
ATOM     20  H   UNL     1      17.107 -26.551  36.700  1.00  0.00     0.293 HD
ENDBRANCH  18  19
ENDBRANCH   6  13
BRANCH   7  21
ATOM     21  O   UNL     1      24.208 -27.442  45.115  1.00  0.00    -0.507 OA
ATOM     22  H   UNL     1      23.503 -27.630  45.757  1.00  0.00     0.293 HD
ENDBRANCH   7  21
BRANCH  12  23
ATOM     23  O   UNL     1      25.598 -31.261  42.691  1.00  0.00    -0.508 OA
ATOM     24  H   UNL     1      25.193 -32.012  43.156  1.00  0.00     0.293 HD
ENDBRANCH  12  23
ENDBRANCH   1   2
BRANCH   1  25
ATOM     25  C   UNL     1      20.683 -24.676  43.163  1.00  0.00     0.339 C 
ATOM     26  O   UNL     1      19.430 -24.484  43.813  1.00  0.00    -0.332 OA
ATOM     27  C   UNL     1      21.242 -23.315  42.682  1.00  0.00     0.214 C 
ATOM     28  C   UNL     1      19.543 -23.785  45.069  1.00  0.00     0.179 C 
ATOM     29  C   UNL     1      21.020 -22.200  43.725  1.00  0.00     0.180 C 
ATOM     30  C   UNL     1      20.705 -22.771  45.114  1.00  0.00     0.177 C 
BRANCH  27  31
ATOM     31  O   UNL     1      22.650 -23.386  42.394  1.00  0.00    -0.384 OA
ATOM     32  H   UNL     1      23.026 -22.478  42.470  1.00  0.00     0.211 HD
ENDBRANCH  27  31
BRANCH  28  33
ATOM     33  C   UNL     1      18.182 -23.117  45.299  1.00  0.00     0.191 C 
BRANCH  33  34
ATOM     34  O   UNL     1      17.496 -22.986  44.050  1.00  0.00    -0.394 OA
ATOM     35  H   UNL     1      16.994 -22.149  44.113  1.00  0.00     0.210 HD
ENDBRANCH  33  34
ENDBRANCH  28  33
BRANCH  29  36
ATOM     36  O   UNL     1      19.968 -21.318  43.323  1.00  0.00    -0.387 OA
ATOM     37  H   UNL     1      19.566 -21.701  42.522  1.00  0.00     0.211 HD
ENDBRANCH  29  36
BRANCH  30  38
ATOM     38  O   UNL     1      21.866 -23.450  45.624  1.00  0.00    -0.387 OA
ATOM     39  H   UNL     1      22.529 -23.488  44.911  1.00  0.00     0.211 HD
ENDBRANCH  30  38
ENDBRANCH   1  25
TORSDOF 11
ENDMDL
MODEL 7
REMARK VINA RESULT:    -7.287      2.402      5.696
REMARK INTER + INTRA:         -11.958
REMARK INTER:                 -10.720
REMARK INTRA:                  -1.238
REMARK UNBOUND:                -1.476
REMARK SMILES O=c1c(O[C@@H]2O[C@H](CO)[C@@H](O)[C@H](O)[C@H]2O)c(-c2ccc(O)cc2)oc2cc(O)cc(O)c12
REMARK SMILES IDX 4 1 3 2 1 3 2 4 32 5 16 6 30 7 25 8 24 9 29 10 26 11 27 12
REMARK SMILES IDX 17 13 18 14 23 15 19 16 22 17 20 18 21 19 31 21 28 23 5 25
REMARK SMILES IDX 6 26 14 27 7 28 12 29 10 30 15 31 8 33 9 34 13 36 11 38
REMARK H PARENT 21 20 31 22 28 24 15 32 9 35 13 37 11 39
ROOT
ATOM      1  O   UNL     1      20.357 -27.364  41.984  1.00  0.00    -0.454 OA
ENDROOT
BRANCH   1   2
ATOM      2  C   UNL     1      20.102 -26.643  40.834  1.00  0.00     0.214 A 
ATOM      3  O   UNL     1      20.105 -24.654  42.072  1.00  0.00    -0.285 OA
ATOM      4  C   UNL     1      19.946 -25.169  40.970  1.00  0.00     0.239 A 
ATOM      5  C   UNL     1      19.621 -24.419  39.736  1.00  0.00     0.111 A 
ATOM      6  C   UNL     1      19.946 -27.207  39.623  1.00  0.00     0.180 A 
ATOM      7  C   UNL     1      19.426 -23.031  39.712  1.00  0.00     0.134 A 
ATOM      8  C   UNL     1      19.512 -25.141  38.545  1.00  0.00     0.146 A 
ATOM      9  O   UNL     1      19.686 -26.498  38.464  1.00  0.00    -0.452 OA
ATOM     10  C   UNL     1      19.127 -22.381  38.512  1.00  0.00     0.093 A 
ATOM     11  C   UNL     1      19.213 -24.494  37.342  1.00  0.00     0.094 A 
ATOM     12  C   UNL     1      19.023 -23.119  37.338  1.00  0.00     0.123 A 
BRANCH   6  13
ATOM     13  C   UNL     1      20.097 -28.659  39.395  1.00  0.00     0.021 A 
ATOM     14  C   UNL     1      21.361 -29.262  39.301  1.00  0.00     0.016 A 
ATOM     15  C   UNL     1      18.955 -29.467  39.279  1.00  0.00     0.016 A 
ATOM     16  C   UNL     1      21.483 -30.637  39.077  1.00  0.00     0.047 A 
ATOM     17  C   UNL     1      19.076 -30.840  39.058  1.00  0.00     0.047 A 
ATOM     18  C   UNL     1      20.337 -31.413  38.956  1.00  0.00     0.115 A 
BRANCH  18  19
ATOM     19  O   UNL     1      20.408 -32.756  38.736  1.00  0.00    -0.508 OA
ATOM     20  H   UNL     1      21.335 -32.996  38.570  1.00  0.00     0.293 HD
ENDBRANCH  18  19
ENDBRANCH   6  13
BRANCH   7  21
ATOM     21  O   UNL     1      19.522 -22.290  40.854  1.00  0.00    -0.507 OA
ATOM     22  H   UNL     1      20.405 -21.890  40.922  1.00  0.00     0.293 HD
ENDBRANCH   7  21
BRANCH  12  23
ATOM     23  O   UNL     1      18.730 -22.444  36.191  1.00  0.00    -0.508 OA
ATOM     24  H   UNL     1      19.513 -21.947  35.901  1.00  0.00     0.293 HD
ENDBRANCH  12  23
ENDBRANCH   1   2
BRANCH   1  25
ATOM     25  C   UNL     1      21.719 -27.205  42.421  1.00  0.00     0.339 C 
ATOM     26  O   UNL     1      22.412 -28.412  42.120  1.00  0.00    -0.332 OA
ATOM     27  C   UNL     1      21.690 -26.982  43.953  1.00  0.00     0.214 C 
ATOM     28  C   UNL     1      23.825 -28.343  42.404  1.00  0.00     0.179 C 
ATOM     29  C   UNL     1      23.037 -27.343  44.613  1.00  0.00     0.180 C 
ATOM     30  C   UNL     1      24.176 -27.416  43.588  1.00  0.00     0.177 C 
BRANCH  27  31
ATOM     31  O   UNL     1      21.377 -25.619  44.289  1.00  0.00    -0.384 OA
ATOM     32  H   UNL     1      20.546 -25.616  44.822  1.00  0.00     0.211 HD
ENDBRANCH  27  31
BRANCH  28  33
ATOM     33  C   UNL     1      24.273 -29.789  42.648  1.00  0.00     0.191 C 
BRANCH  33  34
ATOM     34  O   UNL     1      25.231 -29.821  43.710  1.00  0.00    -0.394 OA
ATOM     35  H   UNL     1      25.696 -30.677  43.618  1.00  0.00     0.210 HD
ENDBRANCH  33  34
ENDBRANCH  28  33
BRANCH  29  36
ATOM     36  O   UNL     1      22.951 -28.585  45.319  1.00  0.00    -0.387 OA
ATOM     37  H   UNL     1      22.057 -28.941  45.160  1.00  0.00     0.211 HD
ENDBRANCH  29  36
BRANCH  30  38
ATOM     38  O   UNL     1      24.428 -26.102  43.061  1.00  0.00    -0.387 OA
ATOM     39  H   UNL     1      24.056 -25.452  43.684  1.00  0.00     0.211 HD
ENDBRANCH  30  38
ENDBRANCH   1  25
TORSDOF 11
ENDMDL
MODEL 8
REMARK VINA RESULT:    -7.184      3.527      7.295
REMARK INTER + INTRA:         -11.810
REMARK INTER:                 -11.135
REMARK INTRA:                  -0.675
REMARK UNBOUND:                -1.476
REMARK SMILES O=c1c(O[C@@H]2O[C@H](CO)[C@@H](O)[C@H](O)[C@H]2O)c(-c2ccc(O)cc2)oc2cc(O)cc(O)c12
REMARK SMILES IDX 4 1 3 2 1 3 2 4 32 5 16 6 30 7 25 8 24 9 29 10 26 11 27 12
REMARK SMILES IDX 17 13 18 14 23 15 19 16 22 17 20 18 21 19 31 21 28 23 5 25
REMARK SMILES IDX 6 26 14 27 7 28 12 29 10 30 15 31 8 33 9 34 13 36 11 38
REMARK H PARENT 21 20 31 22 28 24 15 32 9 35 13 37 11 39
ROOT
ATOM      1  O   UNL     1      18.591 -28.676  38.445  1.00  0.00    -0.454 OA
ENDROOT
BRANCH   1   2
ATOM      2  C   UNL     1      19.740 -29.009  39.138  1.00  0.00     0.214 A 
ATOM      3  O   UNL     1      19.522 -27.077  40.443  1.00  0.00    -0.285 OA
ATOM      4  C   UNL     1      20.201 -28.068  40.193  1.00  0.00     0.239 A 
ATOM      5  C   UNL     1      21.462 -28.413  40.888  1.00  0.00     0.111 A 
ATOM      6  C   UNL     1      20.474 -30.105  38.874  1.00  0.00     0.180 A 
ATOM      7  C   UNL     1      22.030 -27.614  41.889  1.00  0.00     0.134 A 
ATOM      8  C   UNL     1      22.103 -29.599  40.521  1.00  0.00     0.146 A 
ATOM      9  O   UNL     1      21.628 -30.449  39.555  1.00  0.00    -0.452 OA
ATOM     10  C   UNL     1      23.220 -28.000  42.510  1.00  0.00     0.093 A 
ATOM     11  C   UNL     1      23.294 -29.990  41.140  1.00  0.00     0.094 A 
ATOM     12  C   UNL     1      23.841 -29.184  42.130  1.00  0.00     0.123 A 
BRANCH   6  13
ATOM     13  C   UNL     1      20.083 -31.099  37.854  1.00  0.00     0.021 A 
ATOM     14  C   UNL     1      19.398 -32.276  38.196  1.00  0.00     0.016 A 
ATOM     15  C   UNL     1      20.390 -30.868  36.504  1.00  0.00     0.016 A 
ATOM     16  C   UNL     1      19.043 -33.209  37.217  1.00  0.00     0.047 A 
ATOM     17  C   UNL     1      20.034 -31.797  35.525  1.00  0.00     0.047 A 
ATOM     18  C   UNL     1      19.368 -32.960  35.889  1.00  0.00     0.115 A 
BRANCH  18  19
ATOM     19  O   UNL     1      19.043 -33.842  34.901  1.00  0.00    -0.508 OA
ATOM     20  H   UNL     1      18.216 -34.289  35.143  1.00  0.00     0.293 HD
ENDBRANCH  18  19
ENDBRANCH   6  13
BRANCH   7  21
ATOM     21  O   UNL     1      21.436 -26.447  42.275  1.00  0.00    -0.507 OA
ATOM     22  H   UNL     1      21.353 -26.417  43.243  1.00  0.00     0.293 HD
ENDBRANCH   7  21
BRANCH  12  23
ATOM     23  O   UNL     1      25.000 -29.522  42.762  1.00  0.00    -0.508 OA
ATOM     24  H   UNL     1      24.930 -30.430  43.100  1.00  0.00     0.293 HD
ENDBRANCH  12  23
ENDBRANCH   1   2
BRANCH   1  25
ATOM     25  C   UNL     1      18.614 -27.306  38.005  1.00  0.00     0.339 C 
ATOM     26  O   UNL     1      17.275 -26.821  38.039  1.00  0.00    -0.332 OA
ATOM     27  C   UNL     1      19.142 -27.297  36.550  1.00  0.00     0.214 C 
ATOM     28  C   UNL     1      17.172 -25.416  37.728  1.00  0.00     0.179 C 
ATOM     29  C   UNL     1      18.709 -26.028  35.788  1.00  0.00     0.180 C 
ATOM     30  C   UNL     1      18.248 -24.917  36.741  1.00  0.00     0.177 C 
BRANCH  27  31
ATOM     31  O   UNL     1      20.577 -27.382  36.501  1.00  0.00    -0.384 OA
ATOM     32  H   UNL     1      20.834 -28.328  36.613  1.00  0.00     0.211 HD
ENDBRANCH  27  31
BRANCH  28  33
ATOM     33  C   UNL     1      15.751 -25.212  37.188  1.00  0.00     0.191 C 
BRANCH  33  34
ATOM     34  O   UNL     1      15.340 -26.378  36.467  1.00  0.00    -0.394 OA
ATOM     35  H   UNL     1      16.161 -26.763  36.100  1.00  0.00     0.210 HD
ENDBRANCH  33  34
ENDBRANCH  28  33
BRANCH  29  36
ATOM     36  O   UNL     1      17.665 -26.316  34.853  1.00  0.00    -0.387 OA
ATOM     37  H   UNL     1      17.729 -27.265  34.638  1.00  0.00     0.211 HD
ENDBRANCH  29  36
BRANCH  30  38
ATOM     38  O   UNL     1      19.372 -24.453  37.510  1.00  0.00    -0.387 OA
ATOM     39  H   UNL     1      19.984 -23.997  36.904  1.00  0.00     0.211 HD
ENDBRANCH  30  38
ENDBRANCH   1  25
TORSDOF 11
ENDMDL
MODEL 9
REMARK VINA RESULT:    -7.169      1.995      4.770
REMARK INTER + INTRA:         -11.789
REMARK INTER:                 -10.593
REMARK INTRA:                  -1.196
REMARK UNBOUND:                -1.476
REMARK SMILES O=c1c(O[C@@H]2O[C@H](CO)[C@@H](O)[C@H](O)[C@H]2O)c(-c2ccc(O)cc2)oc2cc(O)cc(O)c12
REMARK SMILES IDX 4 1 3 2 1 3 2 4 32 5 16 6 30 7 25 8 24 9 29 10 26 11 27 12
REMARK SMILES IDX 17 13 18 14 23 15 19 16 22 17 20 18 21 19 31 21 28 23 5 25
REMARK SMILES IDX 6 26 14 27 7 28 12 29 10 30 15 31 8 33 9 34 13 36 11 38
REMARK H PARENT 21 20 31 22 28 24 15 32 9 35 13 37 11 39
ROOT
ATOM      1  O   UNL     1      21.453 -25.436  40.381  1.00  0.00    -0.454 OA
ENDROOT
BRANCH   1   2
ATOM      2  C   UNL     1      20.980 -25.046  41.620  1.00  0.00     0.214 A 
ATOM      3  O   UNL     1      22.910 -25.904  42.635  1.00  0.00    -0.285 OA
ATOM      4  C   UNL     1      21.820 -25.366  42.806  1.00  0.00     0.239 A 
ATOM      5  C   UNL     1      21.274 -24.988  44.129  1.00  0.00     0.111 A 
ATOM      6  C   UNL     1      19.793 -24.440  41.804  1.00  0.00     0.180 A 
ATOM      7  C   UNL     1      21.941 -25.242  45.335  1.00  0.00     0.134 A 
ATOM      8  C   UNL     1      20.035 -24.343  44.161  1.00  0.00     0.146 A 
ATOM      9  O   UNL     1      19.305 -24.049  43.038  1.00  0.00    -0.452 OA
ATOM     10  C   UNL     1      21.373 -24.855  46.551  1.00  0.00     0.093 A 
ATOM     11  C   UNL     1      19.463 -23.953  45.376  1.00  0.00     0.094 A 
ATOM     12  C   UNL     1      20.139 -24.214  46.559  1.00  0.00     0.123 A 
BRANCH   6  13
ATOM     13  C   UNL     1      18.903 -24.074  40.684  1.00  0.00     0.021 A 
ATOM     14  C   UNL     1      17.706 -24.764  40.439  1.00  0.00     0.016 A 
ATOM     15  C   UNL     1      19.248 -23.003  39.843  1.00  0.00     0.016 A 
ATOM     16  C   UNL     1      16.880 -24.406  39.369  1.00  0.00     0.047 A 
ATOM     17  C   UNL     1      18.423 -22.644  38.776  1.00  0.00     0.047 A 
ATOM     18  C   UNL     1      17.248 -23.350  38.546  1.00  0.00     0.115 A 
BRANCH  18  19
ATOM     19  O   UNL     1      16.475 -22.968  37.490  1.00  0.00    -0.508 OA
ATOM     20  H   UNL     1      16.513 -23.660  36.810  1.00  0.00     0.293 HD
ENDBRANCH  18  19
ENDBRANCH   6  13
BRANCH   7  21
ATOM     21  O   UNL     1      23.152 -25.872  45.346  1.00  0.00    -0.507 OA
ATOM     22  H   UNL     1      23.639 -25.648  46.157  1.00  0.00     0.293 HD
ENDBRANCH   7  21
BRANCH  12  23
ATOM     23  O   UNL     1      19.623 -23.854  47.769  1.00  0.00    -0.508 OA
ATOM     24  H   UNL     1      18.945 -24.498  48.034  1.00  0.00     0.293 HD
ENDBRANCH  12  23
ENDBRANCH   1   2
BRANCH   1  25
ATOM     25  C   UNL     1      20.865 -26.679  39.955  1.00  0.00     0.339 C 
ATOM     26  O   UNL     1      21.728 -27.730  40.378  1.00  0.00    -0.332 OA
ATOM     27  C   UNL     1      20.790 -26.648  38.409  1.00  0.00     0.214 C 
ATOM     28  C   UNL     1      21.195 -29.044  40.112  1.00  0.00     0.179 C 
ATOM     29  C   UNL     1      20.712 -28.066  37.808  1.00  0.00     0.180 C 
ATOM     30  C   UNL     1      20.302 -29.110  38.855  1.00  0.00     0.177 C 
BRANCH  27  31
ATOM     31  O   UNL     1      19.653 -25.900  37.944  1.00  0.00    -0.384 OA
ATOM     32  H   UNL     1      19.929 -25.381  37.151  1.00  0.00     0.211 HD
ENDBRANCH  27  31
BRANCH  28  33
ATOM     33  C   UNL     1      22.409 -29.975  40.011  1.00  0.00     0.191 C 
BRANCH  33  34
ATOM     34  O   UNL     1      22.208 -30.911  38.947  1.00  0.00    -0.394 OA
ATOM     35  H   UNL     1      21.485 -31.498  39.248  1.00  0.00     0.210 HD
ENDBRANCH  33  34
ENDBRANCH  28  33
BRANCH  29  36
ATOM     36  O   UNL     1      21.959 -28.448  37.218  1.00  0.00    -0.387 OA
ATOM     37  H   UNL     1      21.846 -29.353  36.875  1.00  0.00     0.211 HD
ENDBRANCH  29  36
BRANCH  30  38
ATOM     38  O   UNL     1      18.945 -28.868  39.263  1.00  0.00    -0.387 OA
ATOM     39  H   UNL     1      18.961 -28.224  39.995  1.00  0.00     0.211 HD
ENDBRANCH  30  38
ENDBRANCH   1  25
TORSDOF 11
ENDMDL
