MODEL 1
REMARK VINA RESULT:    -8.453      0.000      0.000
REMARK INTER + INTRA:         -12.565
REMARK INTER:                 -11.912
REMARK INTRA:                  -0.653
REMARK UNBOUND:                -0.653
REMARK SMILES C[C@H]([NH2+]Cc1ccc(OCc2cccc(F)c2)cc1)C(N)=O
REMARK SMILES IDX 5 1 6 2 7 3 8 4 18 5 19 6 4 7 3 8 2 11 1 12 20 13 21 14
REMARK SMILES IDX 22 15 9 18 10 19 11 20 12 21 17 22 13 23 15 24 14 25 16 26
REMARK H PARENT 3 9 3 10 21 16 21 17
ROOT
ATOM      1  C   UNL     1      20.142 -31.303  37.752  1.00  0.00     0.006 A 
ATOM      2  C   UNL     1      20.300 -31.317  39.144  1.00  0.00     0.013 A 
ATOM      3  C   UNL     1      21.113 -30.367  39.767  1.00  0.00     0.047 A 
ATOM      4  C   UNL     1      21.786 -29.396  39.023  1.00  0.00     0.119 A 
ATOM      5  C   UNL     1      21.636 -29.383  37.638  1.00  0.00     0.047 A 
ATOM      6  C   UNL     1      20.824 -30.332  37.005  1.00  0.00     0.013 A 
ENDROOT
BRANCH   1   7
ATOM      7  C   UNL     1      19.299 -32.342  37.071  1.00  0.00     0.297 C 
BRANCH   7   8
ATOM      8  N   UNL     1      19.666 -33.699  37.534  1.00  0.00    -0.333 N 
ATOM      9  H   UNL     1      20.405 -34.097  36.942  1.00  0.00     0.347 HD
ATOM     10  H   UNL     1      20.129 -33.628  38.459  1.00  0.00     0.347 HD
BRANCH   8  11
ATOM     11  C   UNL     1      18.532 -34.689  37.712  1.00  0.00     0.269 C 
ATOM     12  C   UNL     1      18.836 -35.932  36.894  1.00  0.00     0.086 C 
BRANCH  11  13
ATOM     13  C   UNL     1      18.402 -34.985  39.217  1.00  0.00     0.275 C 
ATOM     14  N   UNL     1      18.113 -36.249  39.617  1.00  0.00    -0.365 N 
ATOM     15  O   UNL     1      18.526 -34.062  40.022  1.00  0.00    -0.268 OA
ATOM     16  H   UNL     1      18.005 -36.415  40.615  1.00  0.00     0.159 HD
ATOM     17  H   UNL     1      17.925 -37.036  39.009  1.00  0.00     0.159 HD
ENDBRANCH  11  13
ENDBRANCH   8  11
ENDBRANCH   7   8
ENDBRANCH   1   7
BRANCH   4  18
ATOM     18  O   UNL     1      22.529 -28.529  39.769  1.00  0.00    -0.489 OA
BRANCH  18  19
ATOM     19  C   UNL     1      22.131 -28.246  41.114  1.00  0.00     0.265 C 
BRANCH  19  20
ATOM     20  C   UNL     1      23.185 -28.612  42.134  1.00  0.00    -0.008 A 
ATOM     21  C   UNL     1      23.425 -27.799  43.254  1.00  0.00     0.007 A 
ATOM     22  C   UNL     1      23.908 -29.806  42.001  1.00  0.00     0.046 A 
ATOM     23  C   UNL     1      24.385 -28.157  44.204  1.00  0.00     0.003 A 
ATOM     24  C   UNL     1      24.863 -30.151  42.953  1.00  0.00     0.123 A 
ATOM     25  C   UNL     1      25.110 -29.337  44.051  1.00  0.00     0.039 A 
ATOM     26  F   UNL     1      25.557 -31.286  42.803  1.00  0.00    -0.207 F 
ENDBRANCH  19  20
ENDBRANCH  18  19
ENDBRANCH   4  18
TORSDOF 7
ENDMDL
MODEL 2
REMARK VINA RESULT:    -8.362      2.290      2.674
REMARK INTER + INTRA:         -12.436
REMARK INTER:                 -11.670
REMARK INTRA:                  -0.767
REMARK UNBOUND:                -0.653
REMARK SMILES C[C@H]([NH2+]Cc1ccc(OCc2cccc(F)c2)cc1)C(N)=O
REMARK SMILES IDX 5 1 6 2 7 3 8 4 18 5 19 6 4 7 3 8 2 11 1 12 20 13 21 14
REMARK SMILES IDX 22 15 9 18 10 19 11 20 12 21 17 22 13 23 15 24 14 25 16 26
REMARK H PARENT 3 9 3 10 21 16 21 17
ROOT
ATOM      1  C   UNL     1      19.858 -30.692  39.195  1.00  0.00     0.006 A 
ATOM      2  C   UNL     1      19.166 -29.477  39.109  1.00  0.00     0.013 A 
ATOM      3  C   UNL     1      19.827 -28.273  39.363  1.00  0.00     0.047 A 
ATOM      4  C   UNL     1      21.179 -28.255  39.712  1.00  0.00     0.119 A 
ATOM      5  C   UNL     1      21.869 -29.461  39.805  1.00  0.00     0.047 A 
ATOM      6  C   UNL     1      21.214 -30.673  39.553  1.00  0.00     0.013 A 
ENDROOT
BRANCH   1   7
ATOM      7  C   UNL     1      19.147 -31.993  38.960  1.00  0.00     0.297 C 
BRANCH   7   8
ATOM      8  N   UNL     1      20.113 -33.067  38.641  1.00  0.00    -0.333 N 
ATOM      9  H   UNL     1      20.734 -32.782  37.873  1.00  0.00     0.347 HD
ATOM     10  H   UNL     1      20.770 -33.179  39.436  1.00  0.00     0.347 HD
BRANCH   8  11
ATOM     11  C   UNL     1      19.540 -34.446  38.379  1.00  0.00     0.269 C 
ATOM     12  C   UNL     1      18.322 -34.646  39.264  1.00  0.00     0.086 C 
BRANCH  11  13
ATOM     13  C   UNL     1      19.208 -34.540  36.880  1.00  0.00     0.275 C 
ATOM     14  N   UNL     1      20.194 -34.854  36.004  1.00  0.00    -0.365 N 
ATOM     15  O   UNL     1      18.061 -34.291  36.504  1.00  0.00    -0.268 OA
ATOM     16  H   UNL     1      19.957 -34.883  35.015  1.00  0.00     0.159 HD
ATOM     17  H   UNL     1      21.170 -34.996  36.235  1.00  0.00     0.159 HD
ENDBRANCH  11  13
ENDBRANCH   8  11
ENDBRANCH   7   8
ENDBRANCH   1   7
BRANCH   4  18
ATOM     18  O   UNL     1      21.692 -27.006  39.915  1.00  0.00    -0.489 OA
BRANCH  18  19
ATOM     19  C   UNL     1      21.286 -26.264  41.068  1.00  0.00     0.265 C 
BRANCH  19  20
ATOM     20  C   UNL     1      22.209 -26.453  42.250  1.00  0.00    -0.008 A 
ATOM     21  C   UNL     1      23.285 -25.580  42.478  1.00  0.00     0.007 A 
ATOM     22  C   UNL     1      21.971 -27.483  43.172  1.00  0.00     0.046 A 
ATOM     23  C   UNL     1      24.119 -25.747  43.587  1.00  0.00     0.003 A 
ATOM     24  C   UNL     1      22.809 -27.642  44.270  1.00  0.00     0.123 A 
ATOM     25  C   UNL     1      23.882 -26.786  44.485  1.00  0.00     0.039 A 
ATOM     26  F   UNL     1      22.578 -28.640  45.132  1.00  0.00    -0.207 F 
ENDBRANCH  19  20
ENDBRANCH  18  19
ENDBRANCH   4  18
TORSDOF 7
ENDMDL
MODEL 3
REMARK VINA RESULT:    -8.268      4.319      8.553
REMARK INTER + INTRA:         -12.305
REMARK INTER:                 -11.802
REMARK INTRA:                  -0.503
REMARK UNBOUND:                -0.653
REMARK SMILES C[C@H]([NH2+]Cc1ccc(OCc2cccc(F)c2)cc1)C(N)=O
REMARK SMILES IDX 5 1 6 2 7 3 8 4 18 5 19 6 4 7 3 8 2 11 1 12 20 13 21 14
REMARK SMILES IDX 22 15 9 18 10 19 11 20 12 21 17 22 13 23 15 24 14 25 16 26
REMARK H PARENT 3 9 3 10 21 16 21 17
ROOT
ATOM      1  C   UNL     1      21.389 -28.215  40.449  1.00  0.00     0.006 A 
ATOM      2  C   UNL     1      20.083 -28.357  39.963  1.00  0.00     0.013 A 
ATOM      3  C   UNL     1      19.711 -29.520  39.284  1.00  0.00     0.047 A 
ATOM      4  C   UNL     1      20.626 -30.553  39.071  1.00  0.00     0.119 A 
ATOM      5  C   UNL     1      21.927 -30.412  39.548  1.00  0.00     0.047 A 
ATOM      6  C   UNL     1      22.309 -29.250  40.229  1.00  0.00     0.013 A 
ENDROOT
BRANCH   1   7
ATOM      7  C   UNL     1      21.808 -26.954  41.148  1.00  0.00     0.297 C 
BRANCH   7   8
ATOM      8  N   UNL     1      22.500 -27.265  42.418  1.00  0.00    -0.333 N 
ATOM      9  H   UNL     1      21.826 -27.546  43.141  1.00  0.00     0.347 HD
ATOM     10  H   UNL     1      23.070 -28.123  42.293  1.00  0.00     0.347 HD
BRANCH   8  11
ATOM     11  C   UNL     1      23.450 -26.212  42.955  1.00  0.00     0.269 C 
ATOM     12  C   UNL     1      23.077 -24.866  42.357  1.00  0.00     0.086 C 
BRANCH  11  13
ATOM     13  C   UNL     1      23.349 -26.229  44.491  1.00  0.00     0.275 C 
ATOM     14  N   UNL     1      22.739 -25.195  45.123  1.00  0.00    -0.365 N 
ATOM     15  O   UNL     1      23.855 -27.162  45.114  1.00  0.00    -0.268 OA
ATOM     16  H   UNL     1      22.708 -25.215  46.139  1.00  0.00     0.159 HD
ATOM     17  H   UNL     1      22.369 -24.363  44.679  1.00  0.00     0.159 HD
ENDBRANCH  11  13
ENDBRANCH   8  11
ENDBRANCH   7   8
ENDBRANCH   1   7
BRANCH   4  18
ATOM     18  O   UNL     1      20.115 -31.631  38.408  1.00  0.00    -0.489 OA
BRANCH  18  19
ATOM     19  C   UNL     1      18.929 -32.259  38.905  1.00  0.00     0.265 C 
BRANCH  19  20
ATOM     20  C   UNL     1      18.822 -33.716  38.515  1.00  0.00    -0.008 A 
ATOM     21  C   UNL     1      18.548 -34.705  39.474  1.00  0.00     0.007 A 
ATOM     22  C   UNL     1      18.945 -34.096  37.171  1.00  0.00     0.046 A 
ATOM     23  C   UNL     1      18.427 -36.047  39.102  1.00  0.00     0.003 A 
ATOM     24  C   UNL     1      18.825 -35.435  36.813  1.00  0.00     0.123 A 
ATOM     25  C   UNL     1      18.570 -36.413  37.765  1.00  0.00     0.039 A 
ATOM     26  F   UNL     1      18.961 -35.784  35.528  1.00  0.00    -0.207 F 
ENDBRANCH  19  20
ENDBRANCH  18  19
ENDBRANCH   4  18
TORSDOF 7
ENDMDL
MODEL 4
REMARK VINA RESULT:    -8.211      1.338      1.703
REMARK INTER + INTRA:         -12.224
REMARK INTER:                 -11.523
REMARK INTRA:                  -0.701
REMARK UNBOUND:                -0.653
REMARK SMILES C[C@H]([NH2+]Cc1ccc(OCc2cccc(F)c2)cc1)C(N)=O
REMARK SMILES IDX 5 1 6 2 7 3 8 4 18 5 19 6 4 7 3 8 2 11 1 12 20 13 21 14
REMARK SMILES IDX 22 15 9 18 10 19 11 20 12 21 17 22 13 23 15 24 14 25 16 26
REMARK H PARENT 3 9 3 10 21 16 21 17
ROOT
ATOM      1  C   UNL     1      20.102 -31.225  37.666  1.00  0.00     0.006 A 
ATOM      2  C   UNL     1      20.438 -31.341  39.021  1.00  0.00     0.013 A 
ATOM      3  C   UNL     1      21.156 -30.324  39.655  1.00  0.00     0.047 A 
ATOM      4  C   UNL     1      21.557 -29.184  38.956  1.00  0.00     0.119 A 
ATOM      5  C   UNL     1      21.230 -29.068  37.608  1.00  0.00     0.047 A 
ATOM      6  C   UNL     1      20.511 -30.083  36.964  1.00  0.00     0.013 A 
ENDROOT
BRANCH   1   7
ATOM      7  C   UNL     1      19.362 -32.329  36.967  1.00  0.00     0.297 C 
BRANCH   7   8
ATOM      8  N   UNL     1      19.683 -33.640  37.575  1.00  0.00    -0.333 N 
ATOM      9  H   UNL     1      20.462 -34.090  37.078  1.00  0.00     0.347 HD
ATOM     10  H   UNL     1      20.076 -33.487  38.523  1.00  0.00     0.347 HD
BRANCH   8  11
ATOM     11  C   UNL     1      18.532 -34.610  37.755  1.00  0.00     0.269 C 
ATOM     12  C   UNL     1      18.807 -35.853  36.926  1.00  0.00     0.086 C 
BRANCH  11  13
ATOM     13  C   UNL     1      18.406 -34.915  39.258  1.00  0.00     0.275 C 
ATOM     14  N   UNL     1      18.094 -36.174  39.652  1.00  0.00    -0.365 N 
ATOM     15  O   UNL     1      18.555 -34.000  40.069  1.00  0.00    -0.268 OA
ATOM     16  H   UNL     1      17.989 -36.346  40.649  1.00  0.00     0.159 HD
ATOM     17  H   UNL     1      17.885 -36.953  39.039  1.00  0.00     0.159 HD
ENDBRANCH  11  13
ENDBRANCH   8  11
ENDBRANCH   7   8
ENDBRANCH   1   7
BRANCH   4  18
ATOM     18  O   UNL     1      22.236 -28.271  39.710  1.00  0.00    -0.489 OA
BRANCH  18  19
ATOM     19  C   UNL     1      21.677 -27.839  40.954  1.00  0.00     0.265 C 
BRANCH  19  20
ATOM     20  C   UNL     1      22.604 -28.057  42.128  1.00  0.00    -0.008 A 
ATOM     21  C   UNL     1      23.583 -29.064  42.102  1.00  0.00     0.007 A 
ATOM     22  C   UNL     1      22.532 -27.217  43.249  1.00  0.00     0.046 A 
ATOM     23  C   UNL     1      24.452 -29.244  43.182  1.00  0.00     0.003 A 
ATOM     24  C   UNL     1      23.401 -27.408  44.319  1.00  0.00     0.123 A 
ATOM     25  C   UNL     1      24.358 -28.414  44.297  1.00  0.00     0.039 A 
ATOM     26  F   UNL     1      23.309 -26.607  45.388  1.00  0.00    -0.207 F 
ENDBRANCH  19  20
ENDBRANCH  18  19
ENDBRANCH   4  18
TORSDOF 7
ENDMDL
MODEL 5
REMARK VINA RESULT:    -8.176      2.271      2.823
REMARK INTER + INTRA:         -12.174
REMARK INTER:                 -11.588
REMARK INTRA:                  -0.586
REMARK UNBOUND:                -0.653
REMARK SMILES C[C@H]([NH2+]Cc1ccc(OCc2cccc(F)c2)cc1)C(N)=O
REMARK SMILES IDX 5 1 6 2 7 3 8 4 18 5 19 6 4 7 3 8 2 11 1 12 20 13 21 14
REMARK SMILES IDX 22 15 9 18 10 19 11 20 12 21 17 22 13 23 15 24 14 25 16 26
REMARK H PARENT 3 9 3 10 21 16 21 17
ROOT
ATOM      1  C   UNL     1      19.821 -30.970  39.073  1.00  0.00     0.006 A 
ATOM      2  C   UNL     1      21.188 -30.968  39.379  1.00  0.00     0.013 A 
ATOM      3  C   UNL     1      21.837 -29.768  39.682  1.00  0.00     0.047 A 
ATOM      4  C   UNL     1      21.145 -28.556  39.680  1.00  0.00     0.119 A 
ATOM      5  C   UNL     1      19.787 -28.553  39.370  1.00  0.00     0.047 A 
ATOM      6  C   UNL     1      19.129 -29.751  39.064  1.00  0.00     0.013 A 
ENDROOT
BRANCH   1   7
ATOM      7  C   UNL     1      19.123 -32.249  38.710  1.00  0.00     0.297 C 
BRANCH   7   8
ATOM      8  N   UNL     1      20.087 -33.371  38.648  1.00  0.00    -0.333 N 
ATOM      9  H   UNL     1      20.884 -33.131  38.045  1.00  0.00     0.347 HD
ATOM     10  H   UNL     1      20.532 -33.488  39.578  1.00  0.00     0.347 HD
BRANCH   8  11
ATOM     11  C   UNL     1      19.529 -34.731  38.280  1.00  0.00     0.269 C 
ATOM     12  C   UNL     1      18.292 -34.996  39.120  1.00  0.00     0.086 C 
BRANCH  11  13
ATOM     13  C   UNL     1      19.232 -34.725  36.770  1.00  0.00     0.275 C 
ATOM     14  N   UNL     1      20.243 -34.965  35.899  1.00  0.00    -0.365 N 
ATOM     15  O   UNL     1      18.091 -34.466  36.385  1.00  0.00    -0.268 OA
ATOM     16  H   UNL     1      20.029 -34.928  34.905  1.00  0.00     0.159 HD
ATOM     17  H   UNL     1      21.215 -35.110  36.142  1.00  0.00     0.159 HD
ENDBRANCH  11  13
ENDBRANCH   8  11
ENDBRANCH   7   8
ENDBRANCH   1   7
BRANCH   4  18
ATOM     18  O   UNL     1      21.906 -27.472  40.010  1.00  0.00    -0.489 OA
BRANCH  18  19
ATOM     19  C   UNL     1      21.513 -26.653  41.115  1.00  0.00     0.265 C 
BRANCH  19  20
ATOM     20  C   UNL     1      22.254 -26.984  42.391  1.00  0.00    -0.008 A 
ATOM     21  C   UNL     1      23.217 -28.005  42.427  1.00  0.00     0.007 A 
ATOM     22  C   UNL     1      22.024 -26.234  43.553  1.00  0.00     0.046 A 
ATOM     23  C   UNL     1      23.915 -28.288  43.604  1.00  0.00     0.003 A 
ATOM     24  C   UNL     1      22.723 -26.527  44.720  1.00  0.00     0.123 A 
ATOM     25  C   UNL     1      23.664 -27.548  44.757  1.00  0.00     0.039 A 
ATOM     26  F   UNL     1      22.480 -25.813  45.826  1.00  0.00    -0.207 F 
ENDBRANCH  19  20
ENDBRANCH  18  19
ENDBRANCH   4  18
TORSDOF 7
ENDMDL
MODEL 6
REMARK VINA RESULT:    -8.083      3.755      8.117
REMARK INTER + INTRA:         -12.043
REMARK INTER:                 -11.445
REMARK INTRA:                  -0.598
REMARK UNBOUND:                -0.653
REMARK SMILES C[C@H]([NH2+]Cc1ccc(OCc2cccc(F)c2)cc1)C(N)=O
REMARK SMILES IDX 5 1 6 2 7 3 8 4 18 5 19 6 4 7 3 8 2 11 1 12 20 13 21 14
REMARK SMILES IDX 22 15 9 18 10 19 11 20 12 21 17 22 13 23 15 24 14 25 16 26
REMARK H PARENT 3 9 3 10 21 16 21 17
ROOT
ATOM      1  C   UNL     1      21.561 -28.440  40.522  1.00  0.00     0.006 A 
ATOM      2  C   UNL     1      20.261 -28.538  40.010  1.00  0.00     0.013 A 
ATOM      3  C   UNL     1      19.914 -29.605  39.177  1.00  0.00     0.047 A 
ATOM      4  C   UNL     1      20.848 -30.584  38.835  1.00  0.00     0.119 A 
ATOM      5  C   UNL     1      22.144 -30.486  39.336  1.00  0.00     0.047 A 
ATOM      6  C   UNL     1      22.501 -29.420  40.171  1.00  0.00     0.013 A 
ENDROOT
BRANCH   1   7
ATOM      7  C   UNL     1      21.953 -27.278  41.388  1.00  0.00     0.297 C 
BRANCH   7   8
ATOM      8  N   UNL     1      22.375 -27.743  42.728  1.00  0.00    -0.333 N 
ATOM      9  H   UNL     1      21.716 -27.421  43.448  1.00  0.00     0.347 HD
ATOM     10  H   UNL     1      22.276 -28.775  42.776  1.00  0.00     0.347 HD
BRANCH   8  11
ATOM     11  C   UNL     1      23.803 -27.445  43.138  1.00  0.00     0.269 C 
ATOM     12  C   UNL     1      23.812 -26.202  44.011  1.00  0.00     0.086 C 
BRANCH  11  13
ATOM     13  C   UNL     1      24.352 -28.685  43.864  1.00  0.00     0.275 C 
ATOM     14  N   UNL     1      24.442 -29.858  43.189  1.00  0.00    -0.365 N 
ATOM     15  O   UNL     1      24.664 -28.595  45.052  1.00  0.00    -0.268 OA
ATOM     16  H   UNL     1      24.783 -30.671  43.696  1.00  0.00     0.159 HD
ATOM     17  H   UNL     1      24.135 -30.021  42.237  1.00  0.00     0.159 HD
ENDBRANCH  11  13
ENDBRANCH   8  11
ENDBRANCH   7   8
ENDBRANCH   1   7
BRANCH   4  18
ATOM     18  O   UNL     1      20.360 -31.571  38.028  1.00  0.00    -0.489 OA
BRANCH  18  19
ATOM     19  C   UNL     1      19.018 -32.027  38.216  1.00  0.00     0.265 C 
BRANCH  19  20
ATOM     20  C   UNL     1      18.864 -33.517  38.009  1.00  0.00    -0.008 A 
ATOM     21  C   UNL     1      18.948 -34.083  36.727  1.00  0.00     0.007 A 
ATOM     22  C   UNL     1      18.684 -34.366  39.110  1.00  0.00     0.046 A 
ATOM     23  C   UNL     1      18.828 -35.464  36.546  1.00  0.00     0.003 A 
ATOM     24  C   UNL     1      18.564 -35.739  38.918  1.00  0.00     0.123 A 
ATOM     25  C   UNL     1      18.631 -36.295  37.647  1.00  0.00     0.039 A 
ATOM     26  F   UNL     1      18.377 -36.535  39.978  1.00  0.00    -0.207 F 
ENDBRANCH  19  20
ENDBRANCH  18  19
ENDBRANCH   4  18
TORSDOF 7
ENDMDL
MODEL 7
REMARK VINA RESULT:    -8.076      1.908      2.554
REMARK INTER + INTRA:         -12.034
REMARK INTER:                 -11.346
REMARK INTRA:                  -0.688
REMARK UNBOUND:                -0.653
REMARK SMILES C[C@H]([NH2+]Cc1ccc(OCc2cccc(F)c2)cc1)C(N)=O
REMARK SMILES IDX 5 1 6 2 7 3 8 4 18 5 19 6 4 7 3 8 2 11 1 12 20 13 21 14
REMARK SMILES IDX 22 15 9 18 10 19 11 20 12 21 17 22 13 23 15 24 14 25 16 26
REMARK H PARENT 3 9 3 10 21 16 21 17
ROOT
ATOM      1  C   UNL     1      20.261 -30.515  36.960  1.00  0.00     0.006 A 
ATOM      2  C   UNL     1      20.586 -29.159  37.099  1.00  0.00     0.013 A 
ATOM      3  C   UNL     1      20.795 -28.615  38.368  1.00  0.00     0.047 A 
ATOM      4  C   UNL     1      20.680 -29.401  39.516  1.00  0.00     0.119 A 
ATOM      5  C   UNL     1      20.351 -30.747  39.383  1.00  0.00     0.047 A 
ATOM      6  C   UNL     1      20.138 -31.301  38.114  1.00  0.00     0.013 A 
ENDROOT
BRANCH   1   7
ATOM      7  C   UNL     1      19.998 -31.100  35.603  1.00  0.00     0.297 C 
BRANCH   7   8
ATOM      8  N   UNL     1      20.476 -32.499  35.535  1.00  0.00    -0.333 N 
ATOM      9  H   UNL     1      21.322 -32.567  34.956  1.00  0.00     0.347 HD
ATOM     10  H   UNL     1      20.818 -32.787  36.472  1.00  0.00     0.347 HD
BRANCH   8  11
ATOM     11  C   UNL     1      19.462 -33.549  35.124  1.00  0.00     0.269 C 
ATOM     12  C   UNL     1      20.110 -34.488  34.122  1.00  0.00     0.086 C 
BRANCH  11  13
ATOM     13  C   UNL     1      18.993 -34.272  36.399  1.00  0.00     0.275 C 
ATOM     14  N   UNL     1      19.838 -35.134  37.017  1.00  0.00    -0.365 N 
ATOM     15  O   UNL     1      17.848 -34.079  36.810  1.00  0.00    -0.268 OA
ATOM     16  H   UNL     1      19.496 -35.621  37.842  1.00  0.00     0.159 HD
ATOM     17  H   UNL     1      20.761 -35.395  36.693  1.00  0.00     0.159 HD
ENDBRANCH  11  13
ENDBRANCH   8  11
ENDBRANCH   7   8
ENDBRANCH   1   7
BRANCH   4  18
ATOM     18  O   UNL     1      20.928 -28.735  40.682  1.00  0.00    -0.489 OA
BRANCH  18  19
ATOM     19  C   UNL     1      22.132 -27.973  40.808  1.00  0.00     0.265 C 
BRANCH  19  20
ATOM     20  C   UNL     1      22.944 -28.346  42.028  1.00  0.00    -0.008 A 
ATOM     21  C   UNL     1      23.753 -29.493  42.038  1.00  0.00     0.007 A 
ATOM     22  C   UNL     1      22.939 -27.515  43.158  1.00  0.00     0.046 A 
ATOM     23  C   UNL     1      24.519 -29.818  43.161  1.00  0.00     0.003 A 
ATOM     24  C   UNL     1      23.704 -27.849  44.271  1.00  0.00     0.123 A 
ATOM     25  C   UNL     1      24.491 -28.993  44.284  1.00  0.00     0.039 A 
ATOM     26  F   UNL     1      23.676 -27.054  45.348  1.00  0.00    -0.207 F 
ENDBRANCH  19  20
ENDBRANCH  18  19
ENDBRANCH   4  18
TORSDOF 7
ENDMDL
MODEL 8
REMARK VINA RESULT:    -7.567      3.122      3.991
REMARK INTER + INTRA:         -11.316
REMARK INTER:                 -10.553
REMARK INTRA:                  -0.763
REMARK UNBOUND:                -0.653
REMARK SMILES C[C@H]([NH2+]Cc1ccc(OCc2cccc(F)c2)cc1)C(N)=O
REMARK SMILES IDX 5 1 6 2 7 3 8 4 18 5 19 6 4 7 3 8 2 11 1 12 20 13 21 14
REMARK SMILES IDX 22 15 9 18 10 19 11 20 12 21 17 22 13 23 15 24 14 25 16 26
REMARK H PARENT 3 9 3 10 21 16 21 17
ROOT
ATOM      1  C   UNL     1      20.522 -30.118  38.834  1.00  0.00     0.006 A 
ATOM      2  C   UNL     1      21.802 -30.227  39.394  1.00  0.00     0.013 A 
ATOM      3  C   UNL     1      22.312 -29.195  40.184  1.00  0.00     0.047 A 
ATOM      4  C   UNL     1      21.567 -28.039  40.426  1.00  0.00     0.119 A 
ATOM      5  C   UNL     1      20.297 -27.924  39.866  1.00  0.00     0.047 A 
ATOM      6  C   UNL     1      19.778 -28.954  39.072  1.00  0.00     0.013 A 
ENDROOT
BRANCH   1   7
ATOM      7  C   UNL     1      19.980 -31.206  37.953  1.00  0.00     0.297 C 
BRANCH   7   8
ATOM      8  N   UNL     1      20.264 -32.538  38.533  1.00  0.00    -0.333 N 
ATOM      9  H   UNL     1      21.084 -32.963  38.082  1.00  0.00     0.347 HD
ATOM     10  H   UNL     1      20.579 -32.421  39.515  1.00  0.00     0.347 HD
BRANCH   8  11
ATOM     11  C   UNL     1      19.112 -33.522  38.583  1.00  0.00     0.269 C 
ATOM     12  C   UNL     1      17.899 -32.825  39.176  1.00  0.00     0.086 C 
BRANCH  11  13
ATOM     13  C   UNL     1      18.865 -34.028  37.151  1.00  0.00     0.275 C 
ATOM     14  N   UNL     1      19.883 -34.614  36.474  1.00  0.00    -0.365 N 
ATOM     15  O   UNL     1      17.758 -33.859  36.638  1.00  0.00    -0.268 OA
ATOM     16  H   UNL     1      19.705 -34.917  35.520  1.00  0.00     0.159 HD
ATOM     17  H   UNL     1      20.834 -34.718  36.806  1.00  0.00     0.159 HD
ENDBRANCH  11  13
ENDBRANCH   8  11
ENDBRANCH   7   8
ENDBRANCH   1   7
BRANCH   4  18
ATOM     18  O   UNL     1      22.188 -27.125  41.228  1.00  0.00    -0.489 OA
BRANCH  18  19
ATOM     19  C   UNL     1      22.203 -27.335  42.643  1.00  0.00     0.265 C 
BRANCH  19  20
ATOM     20  C   UNL     1      21.544 -26.215  43.415  1.00  0.00    -0.008 A 
ATOM     21  C   UNL     1      20.275 -25.734  43.054  1.00  0.00     0.007 A 
ATOM     22  C   UNL     1      22.174 -25.671  44.543  1.00  0.00     0.046 A 
ATOM     23  C   UNL     1      19.661 -24.715  43.787  1.00  0.00     0.003 A 
ATOM     24  C   UNL     1      21.555 -24.654  45.264  1.00  0.00     0.123 A 
ATOM     25  C   UNL     1      20.306 -24.170  44.896  1.00  0.00     0.039 A 
ATOM     26  F   UNL     1      22.176 -24.135  46.330  1.00  0.00    -0.207 F 
ENDBRANCH  19  20
ENDBRANCH  18  19
ENDBRANCH   4  18
TORSDOF 7
ENDMDL
MODEL 9
REMARK VINA RESULT:    -7.433      4.648      8.774
REMARK INTER + INTRA:         -11.127
REMARK INTER:                 -10.558
REMARK INTRA:                  -0.570
REMARK UNBOUND:                -0.653
REMARK SMILES C[C@H]([NH2+]Cc1ccc(OCc2cccc(F)c2)cc1)C(N)=O
REMARK SMILES IDX 5 1 6 2 7 3 8 4 18 5 19 6 4 7 3 8 2 11 1 12 20 13 21 14
REMARK SMILES IDX 22 15 9 18 10 19 11 20 12 21 17 22 13 23 15 24 14 25 16 26
REMARK H PARENT 3 9 3 10 21 16 21 17
ROOT
ATOM      1  C   UNL     1      21.518 -28.179  40.710  1.00  0.00     0.006 A 
ATOM      2  C   UNL     1      20.303 -28.182  40.014  1.00  0.00     0.013 A 
ATOM      3  C   UNL     1      20.032 -29.185  39.080  1.00  0.00     0.047 A 
ATOM      4  C   UNL     1      20.962 -30.193  38.817  1.00  0.00     0.119 A 
ATOM      5  C   UNL     1      22.174 -30.190  39.503  1.00  0.00     0.047 A 
ATOM      6  C   UNL     1      22.453 -29.188  40.441  1.00  0.00     0.013 A 
ENDROOT
BRANCH   1   7
ATOM      7  C   UNL     1      21.833 -27.085  41.689  1.00  0.00     0.297 C 
BRANCH   7   8
ATOM      8  N   UNL     1      23.015 -27.438  42.507  1.00  0.00    -0.333 N 
ATOM      9  H   UNL     1      23.447 -28.306  42.165  1.00  0.00     0.347 HD
ATOM     10  H   UNL     1      23.760 -26.735  42.346  1.00  0.00     0.347 HD
BRANCH   8  11
ATOM     11  C   UNL     1      22.815 -27.495  44.008  1.00  0.00     0.269 C 
ATOM     12  C   UNL     1      23.765 -28.529  44.589  1.00  0.00     0.086 C 
BRANCH  11  13
ATOM     13  C   UNL     1      23.060 -26.083  44.568  1.00  0.00     0.275 C 
ATOM     14  N   UNL     1      24.095 -25.352  44.084  1.00  0.00    -0.365 N 
ATOM     15  O   UNL     1      22.333 -25.661  45.469  1.00  0.00    -0.268 OA
ATOM     16  H   UNL     1      24.254 -24.433  44.488  1.00  0.00     0.159 HD
ATOM     17  H   UNL     1      24.774 -25.665  43.401  1.00  0.00     0.159 HD
ENDBRANCH  11  13
ENDBRANCH   8  11
ENDBRANCH   7   8
ENDBRANCH   1   7
BRANCH   4  18
ATOM     18  O   UNL     1      20.552 -31.110  37.893  1.00  0.00    -0.489 OA
BRANCH  18  19
ATOM     19  C   UNL     1      20.266 -30.678  36.559  1.00  0.00     0.265 C 
BRANCH  19  20
ATOM     20  C   UNL     1      20.090 -31.824  35.590  1.00  0.00    -0.008 A 
ATOM     21  C   UNL     1      19.589 -33.065  36.017  1.00  0.00     0.007 A 
ATOM     22  C   UNL     1      20.377 -31.647  34.229  1.00  0.00     0.046 A 
ATOM     23  C   UNL     1      19.406 -34.112  35.110  1.00  0.00     0.003 A 
ATOM     24  C   UNL     1      20.194 -32.697  33.336  1.00  0.00     0.123 A 
ATOM     25  C   UNL     1      19.714 -33.928  33.763  1.00  0.00     0.039 A 
ATOM     26  F   UNL     1      20.489 -32.516  32.042  1.00  0.00    -0.207 F 
ENDBRANCH  19  20
ENDBRANCH  18  19
ENDBRANCH   4  18
TORSDOF 7
ENDMDL
