MODEL 1
REMARK VINA RESULT:    -9.903      0.000      0.000
REMARK INTER + INTRA:         -21.522
REMARK INTER:                 -18.586
REMARK INTRA:                  -2.936
REMARK UNBOUND:                -2.936
REMARK SMILES C[C@@H]1O[C@@H](OC[C@H]2O[C@@H](Oc3ccc(-c4oc5cc(O)cc(O)c5c(=O)c4O)cc3)[C@H](O)[C@@H](O)[C@@H]2O)[C@H](O[C@@H]2O[C@H](CO)[C@@H](O)[C@H](O)[C@H]2O)[C@H](O)[C@H]1O
REMARK SMILES IDX 5 1 4 2 2 3 3 4 52 5 50 6 37 7 1 8 53 9 51 11 38 13 39 14
REMARK SMILES IDX 40 15 48 16 41 17 46 18 44 19 49 20 42 22 43 23 47 25 45 27
REMARK SMILES IDX 6 29 7 30 8 31 35 32 9 33 33 34 31 35 36 36 10 38 11 39
REMARK SMILES IDX 12 40 30 41 13 42 29 43 14 44 15 45 16 46 27 47 17 48 25 49
REMARK SMILES IDX 18 50 24 51 26 52 19 53 22 54 21 55 28 56 20 58 23 60 34 62
REMARK SMILES IDX 32 64
REMARK H PARENT 53 10 51 12 49 21 43 24 47 26 45 28 36 37 28 57 20 59 23 61
REMARK H PARENT 34 63 32 65
ROOT
ATOM      1  O   UNL     1      19.051 -22.204  43.707  1.00  0.00    -0.347 OA
ENDROOT
BRANCH   1   2
ATOM      2  C   UNL     1      17.811 -22.754  44.166  1.00  0.00     0.282 C 
ATOM      3  C   UNL     1      16.174 -21.157  43.522  1.00  0.00     0.150 C 
ATOM      4  O   UNL     1      16.782 -22.413  43.229  1.00  0.00    -0.344 OA
ATOM      5  C   UNL     1      15.319 -21.289  44.794  1.00  0.00     0.174 C 
ATOM      6  C   UNL     1      16.044 -22.099  45.883  1.00  0.00     0.180 C 
ATOM      7  C   UNL     1      17.547 -22.235  45.606  1.00  0.00     0.209 C 
ATOM      8  C   UNL     1      15.324 -20.751  42.323  1.00  0.00     0.041 C 
BRANCH   5   9
ATOM      9  O   UNL     1      15.004 -19.981  45.287  1.00  0.00    -0.388 OA
ATOM     10  H   UNL     1      14.647 -19.475  44.533  1.00  0.00     0.211 HD
ENDBRANCH   5   9
BRANCH   6  11
ATOM     11  O   UNL     1      15.439 -23.397  46.009  1.00  0.00    -0.387 OA
ATOM     12  H   UNL     1      15.981 -23.994  45.450  1.00  0.00     0.211 HD
ENDBRANCH   6  11
BRANCH   7  13
ATOM     13  O   UNL     1      18.073 -23.160  46.584  1.00  0.00    -0.338 OA
BRANCH  13  14
ATOM     14  C   UNL     1      19.213 -22.655  47.287  1.00  0.00     0.282 C 
ATOM     15  O   UNL     1      20.052 -21.894  46.424  1.00  0.00    -0.341 OA
ATOM     16  C   UNL     1      19.982 -23.876  47.830  1.00  0.00     0.202 C 
ATOM     17  C   UNL     1      21.193 -21.361  47.109  1.00  0.00     0.178 C 
ATOM     18  C   UNL     1      21.259 -23.417  48.528  1.00  0.00     0.179 C 
ATOM     19  C   UNL     1      22.082 -22.510  47.612  1.00  0.00     0.177 C 
BRANCH  16  20
ATOM     20  O   UNL     1      19.198 -24.634  48.764  1.00  0.00    -0.385 OA
ATOM     21  H   UNL     1      18.263 -24.463  48.518  1.00  0.00     0.211 HD
ENDBRANCH  16  20
BRANCH  17  22
ATOM     22  C   UNL     1      21.970 -20.429  46.169  1.00  0.00     0.191 C 
BRANCH  22  23
ATOM     23  O   UNL     1      21.589 -20.616  44.809  1.00  0.00    -0.394 OA
ATOM     24  H   UNL     1      22.343 -20.310  44.262  1.00  0.00     0.210 HD
ENDBRANCH  22  23
ENDBRANCH  17  22
BRANCH  18  25
ATOM     25  O   UNL     1      22.056 -24.552  48.906  1.00  0.00    -0.387 OA
ATOM     26  H   UNL     1      21.408 -25.241  49.158  1.00  0.00     0.211 HD
ENDBRANCH  18  25
BRANCH  19  27
ATOM     27  O   UNL     1      23.222 -22.017  48.326  1.00  0.00    -0.387 OA
ATOM     28  H   UNL     1      22.961 -21.121  48.626  1.00  0.00     0.211 HD
ENDBRANCH  19  27
ENDBRANCH  13  14
ENDBRANCH   7  13
ENDBRANCH   1   2
BRANCH   1  29
ATOM     29  C   UNL     1      19.392 -22.606  42.375  1.00  0.00     0.198 C 
BRANCH  29  30
ATOM     30  C   UNL     1      20.165 -23.936  42.391  1.00  0.00     0.180 C 
ATOM     31  O   UNL     1      20.326 -24.415  41.054  1.00  0.00    -0.332 OA
ATOM     32  C   UNL     1      21.569 -23.760  42.989  1.00  0.00     0.177 C 
ATOM     33  C   UNL     1      20.709 -25.798  41.006  1.00  0.00     0.339 C 
ATOM     34  C   UNL     1      22.481 -24.958  42.631  1.00  0.00     0.180 C 
ATOM     35  C   UNL     1      21.692 -26.187  42.144  1.00  0.00     0.214 C 
BRANCH  32  36
ATOM     36  O   UNL     1      21.477 -23.605  44.407  1.00  0.00    -0.387 OA
ATOM     37  H   UNL     1      21.270 -22.669  44.582  1.00  0.00     0.211 HD
ENDBRANCH  32  36
BRANCH  33  38
ATOM     38  O   UNL     1      21.380 -26.056  39.756  1.00  0.00    -0.462 OA
BRANCH  38  39
ATOM     39  C   UNL     1      21.047 -27.298  39.284  1.00  0.00     0.123 A 
ATOM     40  C   UNL     1      22.044 -28.230  39.008  1.00  0.00     0.047 A 
ATOM     41  C   UNL     1      19.704 -27.627  39.132  1.00  0.00     0.047 A 
ATOM     42  C   UNL     1      21.696 -29.485  38.509  1.00  0.00     0.016 A 
ATOM     43  C   UNL     1      19.356 -28.885  38.633  1.00  0.00     0.016 A 
ATOM     44  C   UNL     1      20.350 -29.817  38.296  1.00  0.00     0.021 A 
BRANCH  44  45
ATOM     45  C   UNL     1      19.976 -31.130  37.749  1.00  0.00     0.180 A 
ATOM     46  O   UNL     1      19.590 -32.040  38.722  1.00  0.00    -0.452 OA
ATOM     47  C   UNL     1      20.000 -31.392  36.430  1.00  0.00     0.208 A 
ATOM     48  C   UNL     1      19.232 -33.307  38.333  1.00  0.00     0.146 A 
ATOM     49  C   UNL     1      19.618 -32.748  35.975  1.00  0.00     0.238 A 
ATOM     50  C   UNL     1      18.864 -34.197  39.343  1.00  0.00     0.094 A 
ATOM     51  C   UNL     1      19.225 -33.717  37.000  1.00  0.00     0.111 A 
ATOM     52  O   UNL     1      19.640 -33.028  34.780  1.00  0.00    -0.285 OA
ATOM     53  C   UNL     1      18.491 -35.495  39.003  1.00  0.00     0.123 A 
ATOM     54  C   UNL     1      18.847 -35.022  36.671  1.00  0.00     0.134 A 
ATOM     55  C   UNL     1      18.479 -35.913  37.674  1.00  0.00     0.093 A 
BRANCH  47  56
ATOM     56  O   UNL     1      20.346 -30.467  35.456  1.00  0.00    -0.502 OA
ATOM     57  H   UNL     1      20.913 -29.816  35.930  1.00  0.00     0.293 HD
ENDBRANCH  47  56
BRANCH  53  58
ATOM     58  O   UNL     1      18.124 -36.399  39.954  1.00  0.00    -0.508 OA
ATOM     59  H   UNL     1      18.660 -37.204  39.859  1.00  0.00     0.293 HD
ENDBRANCH  53  58
BRANCH  54  60
ATOM     60  O   UNL     1      18.817 -35.488  35.384  1.00  0.00    -0.507 OA
ATOM     61  H   UNL     1      17.916 -35.347  35.019  1.00  0.00     0.293 HD
ENDBRANCH  54  60
ENDBRANCH  44  45
ENDBRANCH  38  39
ENDBRANCH  33  38
BRANCH  34  62
ATOM     62  O   UNL     1      23.444 -24.559  41.648  1.00  0.00    -0.387 OA
ATOM     63  H   UNL     1      24.336 -24.773  41.989  1.00  0.00     0.211 HD
ENDBRANCH  34  62
BRANCH  35  64
ATOM     64  O   UNL     1      20.959 -26.769  43.235  1.00  0.00    -0.384 OA
ATOM     65  H   UNL     1      20.059 -26.969  42.918  1.00  0.00     0.211 HD
ENDBRANCH  35  64
ENDBRANCH  29  30
ENDBRANCH   1  29
TORSDOF 21
ENDMDL
MODEL 2
REMARK VINA RESULT:    -9.883      2.429      5.321
REMARK INTER + INTRA:         -21.485
REMARK INTER:                 -18.093
REMARK INTRA:                  -3.392
REMARK UNBOUND:                -2.936
REMARK SMILES C[C@@H]1O[C@@H](OC[C@H]2O[C@@H](Oc3ccc(-c4oc5cc(O)cc(O)c5c(=O)c4O)cc3)[C@H](O)[C@@H](O)[C@@H]2O)[C@H](O[C@@H]2O[C@H](CO)[C@@H](O)[C@H](O)[C@H]2O)[C@H](O)[C@H]1O
REMARK SMILES IDX 5 1 4 2 2 3 3 4 52 5 50 6 37 7 1 8 53 9 51 11 38 13 39 14
REMARK SMILES IDX 40 15 48 16 41 17 46 18 44 19 49 20 42 22 43 23 47 25 45 27
REMARK SMILES IDX 6 29 7 30 8 31 35 32 9 33 33 34 31 35 36 36 10 38 11 39
REMARK SMILES IDX 12 40 30 41 13 42 29 43 14 44 15 45 16 46 27 47 17 48 25 49
REMARK SMILES IDX 18 50 24 51 26 52 19 53 22 54 21 55 28 56 20 58 23 60 34 62
REMARK SMILES IDX 32 64
REMARK H PARENT 53 10 51 12 49 21 43 24 47 26 45 28 36 37 28 57 20 59 23 61
REMARK H PARENT 34 63 32 65
ROOT
ATOM      1  O   UNL     1      18.028 -23.018  42.103  1.00  0.00    -0.347 OA
ENDROOT
BRANCH   1   2
ATOM      2  C   UNL     1      17.215 -21.850  41.946  1.00  0.00     0.282 C 
ATOM      3  C   UNL     1      15.207 -22.359  43.110  1.00  0.00     0.150 C 
ATOM      4  O   UNL     1      16.449 -21.658  43.141  1.00  0.00    -0.344 OA
ATOM      5  C   UNL     1      14.265 -21.681  42.100  1.00  0.00     0.174 C 
ATOM      6  C   UNL     1      15.002 -21.303  40.803  1.00  0.00     0.180 C 
ATOM      7  C   UNL     1      16.350 -22.023  40.667  1.00  0.00     0.209 C 
ATOM      8  C   UNL     1      14.617 -22.339  44.516  1.00  0.00     0.041 C 
BRANCH   5   9
ATOM      9  O   UNL     1      13.179 -22.565  41.803  1.00  0.00    -0.388 OA
ATOM     10  H   UNL     1      12.362 -22.036  41.860  1.00  0.00     0.211 HD
ENDBRANCH   5   9
BRANCH   6  11
ATOM     11  O   UNL     1      15.188 -19.879  40.746  1.00  0.00    -0.387 OA
ATOM     12  H   UNL     1      16.131 -19.727  40.973  1.00  0.00     0.211 HD
ENDBRANCH   6  11
BRANCH   7  13
ATOM     13  O   UNL     1      17.019 -21.450  39.520  1.00  0.00    -0.338 OA
BRANCH  13  14
ATOM     14  C   UNL     1      17.247 -22.392  38.467  1.00  0.00     0.282 C 
ATOM     15  O   UNL     1      16.351 -23.495  38.562  1.00  0.00    -0.341 OA
ATOM     16  C   UNL     1      18.702 -22.879  38.608  1.00  0.00     0.202 C 
ATOM     17  C   UNL     1      16.546 -24.445  37.506  1.00  0.00     0.178 C 
ATOM     18  C   UNL     1      18.995 -23.950  37.561  1.00  0.00     0.179 C 
ATOM     19  C   UNL     1      17.949 -25.065  37.617  1.00  0.00     0.177 C 
BRANCH  16  20
ATOM     20  O   UNL     1      19.646 -21.810  38.445  1.00  0.00    -0.385 OA
ATOM     21  H   UNL     1      19.147 -20.989  38.645  1.00  0.00     0.211 HD
ENDBRANCH  16  20
BRANCH  17  22
ATOM     22  C   UNL     1      15.456 -25.522  37.575  1.00  0.00     0.191 C 
BRANCH  22  23
ATOM     23  O   UNL     1      15.994 -26.795  37.926  1.00  0.00    -0.394 OA
ATOM     24  H   UNL     1      16.949 -26.656  38.104  1.00  0.00     0.210 HD
ENDBRANCH  22  23
ENDBRANCH  17  22
BRANCH  18  25
ATOM     25  O   UNL     1      20.298 -24.517  37.778  1.00  0.00    -0.387 OA
ATOM     26  H   UNL     1      20.801 -24.309  36.965  1.00  0.00     0.211 HD
ENDBRANCH  18  25
BRANCH  19  27
ATOM     27  O   UNL     1      18.192 -26.002  36.562  1.00  0.00    -0.387 OA
ATOM     28  H   UNL     1      19.036 -25.709  36.156  1.00  0.00     0.211 HD
ENDBRANCH  19  27
ENDBRANCH  13  14
ENDBRANCH   7  13
ENDBRANCH   1   2
BRANCH   1  29
ATOM     29  C   UNL     1      19.422 -22.723  42.260  1.00  0.00     0.198 C 
BRANCH  29  30
ATOM     30  C   UNL     1      20.247 -24.019  42.318  1.00  0.00     0.180 C 
ATOM     31  O   UNL     1      20.422 -24.537  40.997  1.00  0.00    -0.332 OA
ATOM     32  C   UNL     1      21.646 -23.765  42.901  1.00  0.00     0.177 C 
ATOM     33  C   UNL     1      20.860 -25.904  40.995  1.00  0.00     0.339 C 
ATOM     34  C   UNL     1      22.604 -24.937  42.579  1.00  0.00     0.180 C 
ATOM     35  C   UNL     1      21.864 -26.213  42.140  1.00  0.00     0.214 C 
BRANCH  32  36
ATOM     36  O   UNL     1      21.554 -23.564  44.313  1.00  0.00    -0.387 OA
ATOM     37  H   UNL     1      22.404 -23.188  44.607  1.00  0.00     0.211 HD
ENDBRANCH  32  36
BRANCH  33  38
ATOM     38  O   UNL     1      21.535 -26.179  39.751  1.00  0.00    -0.462 OA
BRANCH  38  39
ATOM     39  C   UNL     1      21.178 -27.413  39.277  1.00  0.00     0.123 A 
ATOM     40  C   UNL     1      22.158 -28.333  38.914  1.00  0.00     0.047 A 
ATOM     41  C   UNL     1      19.829 -27.748  39.209  1.00  0.00     0.047 A 
ATOM     42  C   UNL     1      21.783 -29.579  38.415  1.00  0.00     0.016 A 
ATOM     43  C   UNL     1      19.454 -28.998  38.709  1.00  0.00     0.016 A 
ATOM     44  C   UNL     1      20.428 -29.916  38.287  1.00  0.00     0.021 A 
BRANCH  44  45
ATOM     45  C   UNL     1      20.025 -31.220  37.739  1.00  0.00     0.180 A 
ATOM     46  O   UNL     1      19.650 -32.133  38.715  1.00  0.00    -0.452 OA
ATOM     47  C   UNL     1      20.015 -31.473  36.418  1.00  0.00     0.208 A 
ATOM     48  C   UNL     1      19.267 -33.392  38.325  1.00  0.00     0.146 A 
ATOM     49  C   UNL     1      19.605 -32.820  35.963  1.00  0.00     0.238 A 
ATOM     50  C   UNL     1      18.911 -34.285  39.337  1.00  0.00     0.094 A 
ATOM     51  C   UNL     1      19.223 -33.792  36.990  1.00  0.00     0.111 A 
ATOM     52  O   UNL     1      19.595 -33.092  34.765  1.00  0.00    -0.285 OA
ATOM     53  C   UNL     1      18.514 -35.575  38.996  1.00  0.00     0.123 A 
ATOM     54  C   UNL     1      18.821 -35.090  36.660  1.00  0.00     0.134 A 
ATOM     55  C   UNL     1      18.465 -35.984  37.665  1.00  0.00     0.093 A 
BRANCH  47  56
ATOM     56  O   UNL     1      20.350 -30.545  35.443  1.00  0.00    -0.502 OA
ATOM     57  H   UNL     1      20.488 -29.707  35.941  1.00  0.00     0.293 HD
ENDBRANCH  47  56
BRANCH  53  58
ATOM     58  O   UNL     1      18.157 -36.482  39.950  1.00  0.00    -0.508 OA
ATOM     59  H   UNL     1      17.322 -36.207  40.362  1.00  0.00     0.293 HD
ENDBRANCH  53  58
BRANCH  54  60
ATOM     60  O   UNL     1      18.755 -35.546  35.371  1.00  0.00    -0.507 OA
ATOM     61  H   UNL     1      18.497 -36.493  35.385  1.00  0.00     0.293 HD
ENDBRANCH  54  60
ENDBRANCH  44  45
ENDBRANCH  38  39
ENDBRANCH  33  38
BRANCH  34  62
ATOM     62  O   UNL     1      23.546 -24.534  41.576  1.00  0.00    -0.387 OA
ATOM     63  H   UNL     1      24.068 -25.320  41.314  1.00  0.00     0.211 HD
ENDBRANCH  34  62
BRANCH  35  64
ATOM     64  O   UNL     1      21.160 -26.786  43.255  1.00  0.00    -0.384 OA
ATOM     65  H   UNL     1      21.715 -26.674  44.049  1.00  0.00     0.211 HD
ENDBRANCH  35  64
ENDBRANCH  29  30
ENDBRANCH   1  29
TORSDOF 21
ENDMDL
MODEL 3
REMARK VINA RESULT:    -9.589      1.439      2.424
REMARK INTER + INTRA:         -20.934
REMARK INTER:                 -18.797
REMARK INTRA:                  -2.137
REMARK UNBOUND:                -2.936
REMARK SMILES C[C@@H]1O[C@@H](OC[C@H]2O[C@@H](Oc3ccc(-c4oc5cc(O)cc(O)c5c(=O)c4O)cc3)[C@H](O)[C@@H](O)[C@@H]2O)[C@H](O[C@@H]2O[C@H](CO)[C@@H](O)[C@H](O)[C@H]2O)[C@H](O)[C@H]1O
REMARK SMILES IDX 5 1 4 2 2 3 3 4 52 5 50 6 37 7 1 8 53 9 51 11 38 13 39 14
REMARK SMILES IDX 40 15 48 16 41 17 46 18 44 19 49 20 42 22 43 23 47 25 45 27
REMARK SMILES IDX 6 29 7 30 8 31 35 32 9 33 33 34 31 35 36 36 10 38 11 39
REMARK SMILES IDX 12 40 30 41 13 42 29 43 14 44 15 45 16 46 27 47 17 48 25 49
REMARK SMILES IDX 18 50 24 51 26 52 19 53 22 54 21 55 28 56 20 58 23 60 34 62
REMARK SMILES IDX 32 64
REMARK H PARENT 53 10 51 12 49 21 43 24 47 26 45 28 36 37 28 57 20 59 23 61
REMARK H PARENT 34 63 32 65
ROOT
ATOM      1  O   UNL     1      19.797 -22.848  44.616  1.00  0.00    -0.347 OA
ENDROOT
BRANCH   1   2
ATOM      2  C   UNL     1      18.766 -21.978  45.096  1.00  0.00     0.282 C 
ATOM      3  C   UNL     1      17.937 -20.902  43.148  1.00  0.00     0.150 C 
ATOM      4  O   UNL     1      17.720 -21.922  44.120  1.00  0.00    -0.344 OA
ATOM      5  C   UNL     1      17.740 -19.524  43.802  1.00  0.00     0.174 C 
ATOM      6  C   UNL     1      18.400 -19.457  45.192  1.00  0.00     0.180 C 
ATOM      7  C   UNL     1      19.401 -20.597  45.418  1.00  0.00     0.209 C 
ATOM      8  C   UNL     1      16.951 -21.118  42.006  1.00  0.00     0.041 C 
BRANCH   5   9
ATOM      9  O   UNL     1      18.295 -18.515  42.950  1.00  0.00    -0.388 OA
ATOM     10  H   UNL     1      18.029 -17.654  43.324  1.00  0.00     0.211 HD
ENDBRANCH   5   9
BRANCH   6  11
ATOM     11  O   UNL     1      17.387 -19.471  46.212  1.00  0.00    -0.387 OA
ATOM     12  H   UNL     1      17.350 -18.553  46.558  1.00  0.00     0.211 HD
ENDBRANCH   6  11
BRANCH   7  13
ATOM     13  O   UNL     1      19.804 -20.534  46.805  1.00  0.00    -0.338 OA
BRANCH  13  14
ATOM     14  C   UNL     1      20.686 -21.593  47.188  1.00  0.00     0.282 C 
ATOM     15  O   UNL     1      20.011 -22.559  47.989  1.00  0.00    -0.341 OA
ATOM     16  C   UNL     1      21.835 -20.953  47.991  1.00  0.00     0.202 C 
ATOM     17  C   UNL     1      20.868 -23.642  48.371  1.00  0.00     0.178 C 
ATOM     18  C   UNL     1      22.779 -22.037  48.502  1.00  0.00     0.179 C 
ATOM     19  C   UNL     1      22.005 -23.116  49.262  1.00  0.00     0.177 C 
BRANCH  16  20
ATOM     20  O   UNL     1      22.592 -20.024  47.199  1.00  0.00    -0.385 OA
ATOM     21  H   UNL     1      23.133 -19.515  47.841  1.00  0.00     0.211 HD
ENDBRANCH  16  20
BRANCH  17  22
ATOM     22  C   UNL     1      20.048 -24.718  49.095  1.00  0.00     0.191 C 
BRANCH  22  23
ATOM     23  O   UNL     1      20.180 -24.617  50.511  1.00  0.00    -0.394 OA
ATOM     24  H   UNL     1      20.088 -23.667  50.735  1.00  0.00     0.210 HD
ENDBRANCH  22  23
ENDBRANCH  17  22
BRANCH  18  25
ATOM     25  O   UNL     1      23.769 -21.466  49.375  1.00  0.00    -0.387 OA
ATOM     26  H   UNL     1      23.258 -20.929  50.015  1.00  0.00     0.211 HD
ENDBRANCH  18  25
BRANCH  19  27
ATOM     27  O   UNL     1      22.900 -24.167  49.645  1.00  0.00    -0.387 OA
ATOM     28  H   UNL     1      23.796 -23.780  49.546  1.00  0.00     0.211 HD
ENDBRANCH  19  27
ENDBRANCH  13  14
ENDBRANCH   7  13
ENDBRANCH   1   2
BRANCH   1  29
ATOM     29  C   UNL     1      19.425 -24.232  44.632  1.00  0.00     0.198 C 
BRANCH  29  30
ATOM     30  C   UNL     1      20.547 -25.102  44.040  1.00  0.00     0.180 C 
ATOM     31  O   UNL     1      20.285 -25.347  42.656  1.00  0.00    -0.332 OA
ATOM     32  C   UNL     1      21.909 -24.398  44.134  1.00  0.00     0.177 C 
ATOM     33  C   UNL     1      21.073 -26.425  42.129  1.00  0.00     0.339 C 
ATOM     34  C   UNL     1      22.942 -25.057  43.189  1.00  0.00     0.180 C 
ATOM     35  C   UNL     1      22.513 -26.456  42.713  1.00  0.00     0.214 C 
BRANCH  32  36
ATOM     36  O   UNL     1      22.376 -24.423  45.484  1.00  0.00    -0.387 OA
ATOM     37  H   UNL     1      23.334 -24.598  45.455  1.00  0.00     0.211 HD
ENDBRANCH  32  36
BRANCH  33  38
ATOM     38  O   UNL     1      21.196 -26.262  40.701  1.00  0.00    -0.462 OA
BRANCH  38  39
ATOM     39  C   UNL     1      20.877 -27.427  40.059  1.00  0.00     0.123 A 
ATOM     40  C   UNL     1      19.580 -27.641  39.602  1.00  0.00     0.047 A 
ATOM     41  C   UNL     1      21.875 -28.370  39.830  1.00  0.00     0.047 A 
ATOM     42  C   UNL     1      19.260 -28.840  38.966  1.00  0.00     0.016 A 
ATOM     43  C   UNL     1      21.554 -29.571  39.192  1.00  0.00     0.016 A 
ATOM     44  C   UNL     1      20.239 -29.826  38.775  1.00  0.00     0.021 A 
BRANCH  44  45
ATOM     45  C   UNL     1      19.904 -31.103  38.126  1.00  0.00     0.180 A 
ATOM     46  O   UNL     1      19.499 -32.083  39.021  1.00  0.00    -0.452 OA
ATOM     47  C   UNL     1      19.976 -31.273  36.795  1.00  0.00     0.208 A 
ATOM     48  C   UNL     1      19.172 -33.324  38.535  1.00  0.00     0.146 A 
ATOM     49  C   UNL     1      19.630 -32.599  36.236  1.00  0.00     0.238 A 
ATOM     50  C   UNL     1      18.785 -34.286  39.468  1.00  0.00     0.094 A 
ATOM     51  C   UNL     1      19.216 -33.642  37.178  1.00  0.00     0.111 A 
ATOM     52  O   UNL     1      19.696 -32.797  35.025  1.00  0.00    -0.285 OA
ATOM     53  C   UNL     1      18.442 -35.562  39.028  1.00  0.00     0.123 A 
ATOM     54  C   UNL     1      18.869 -34.926  36.747  1.00  0.00     0.134 A 
ATOM     55  C   UNL     1      18.481 -35.888  37.674  1.00  0.00     0.093 A 
BRANCH  47  56
ATOM     56  O   UNL     1      20.340 -30.280  35.898  1.00  0.00    -0.502 OA
ATOM     57  H   UNL     1      20.871 -29.649  36.437  1.00  0.00     0.293 HD
ENDBRANCH  47  56
BRANCH  53  58
ATOM     58  O   UNL     1      18.057 -36.534  39.902  1.00  0.00    -0.508 OA
ATOM     59  H   UNL     1      18.817 -36.801  40.445  1.00  0.00     0.293 HD
ENDBRANCH  53  58
BRANCH  54  60
ATOM     60  O   UNL     1      18.889 -35.303  35.432  1.00  0.00    -0.507 OA
ATOM     61  H   UNL     1      19.351 -34.610  34.912  1.00  0.00     0.293 HD
ENDBRANCH  54  60
ENDBRANCH  44  45
ENDBRANCH  38  39
ENDBRANCH  33  38
BRANCH  34  62
ATOM     62  O   UNL     1      23.190 -24.200  42.065  1.00  0.00    -0.387 OA
ATOM     63  H   UNL     1      22.522 -23.485  42.074  1.00  0.00     0.211 HD
ENDBRANCH  34  62
BRANCH  35  64
ATOM     64  O   UNL     1      22.567 -27.389  43.806  1.00  0.00    -0.384 OA
ATOM     65  H   UNL     1      23.403 -27.886  43.734  1.00  0.00     0.211 HD
ENDBRANCH  35  64
ENDBRANCH  29  30
ENDBRANCH   1  29
TORSDOF 21
ENDMDL
MODEL 4
REMARK VINA RESULT:    -9.428      1.910      4.670
REMARK INTER + INTRA:         -20.632
REMARK INTER:                 -17.937
REMARK INTRA:                  -2.695
REMARK UNBOUND:                -2.936
REMARK SMILES C[C@@H]1O[C@@H](OC[C@H]2O[C@@H](Oc3ccc(-c4oc5cc(O)cc(O)c5c(=O)c4O)cc3)[C@H](O)[C@@H](O)[C@@H]2O)[C@H](O[C@@H]2O[C@H](CO)[C@@H](O)[C@H](O)[C@H]2O)[C@H](O)[C@H]1O
REMARK SMILES IDX 5 1 4 2 2 3 3 4 52 5 50 6 37 7 1 8 53 9 51 11 38 13 39 14
REMARK SMILES IDX 40 15 48 16 41 17 46 18 44 19 49 20 42 22 43 23 47 25 45 27
REMARK SMILES IDX 6 29 7 30 8 31 35 32 9 33 33 34 31 35 36 36 10 38 11 39
REMARK SMILES IDX 12 40 30 41 13 42 29 43 14 44 15 45 16 46 27 47 17 48 25 49
REMARK SMILES IDX 18 50 24 51 26 52 19 53 22 54 21 55 28 56 20 58 23 60 34 62
REMARK SMILES IDX 32 64
REMARK H PARENT 53 10 51 12 49 21 43 24 47 26 45 28 36 37 28 57 20 59 23 61
REMARK H PARENT 34 63 32 65
ROOT
ATOM      1  O   UNL     1      19.910 -22.372  43.256  1.00  0.00    -0.347 OA
ENDROOT
BRANCH   1   2
ATOM      2  C   UNL     1      18.916 -21.351  43.393  1.00  0.00     0.282 C 
ATOM      3  C   UNL     1      18.240 -21.475  45.667  1.00  0.00     0.150 C 
ATOM      4  O   UNL     1      19.023 -20.776  44.701  1.00  0.00    -0.344 OA
ATOM      5  C   UNL     1      16.748 -21.212  45.401  1.00  0.00     0.174 C 
ATOM      6  C   UNL     1      16.418 -21.288  43.900  1.00  0.00     0.180 C 
ATOM      7  C   UNL     1      17.526 -21.976  43.093  1.00  0.00     0.209 C 
ATOM      8  C   UNL     1      18.651 -20.985  47.051  1.00  0.00     0.041 C 
BRANCH   5   9
ATOM      9  O   UNL     1      15.966 -22.171  46.122  1.00  0.00    -0.388 OA
ATOM     10  H   UNL     1      16.330 -22.209  47.025  1.00  0.00     0.211 HD
ENDBRANCH   5   9
BRANCH   6  11
ATOM     11  O   UNL     1      16.173 -19.967  43.387  1.00  0.00    -0.387 OA
ATOM     12  H   UNL     1      15.492 -19.578  43.978  1.00  0.00     0.211 HD
ENDBRANCH   6  11
BRANCH   7  13
ATOM     13  O   UNL     1      17.188 -21.820  41.696  1.00  0.00    -0.338 OA
BRANCH  13  14
ATOM     14  C   UNL     1      17.383 -23.011  40.928  1.00  0.00     0.282 C 
ATOM     15  O   UNL     1      18.232 -22.770  39.811  1.00  0.00    -0.341 OA
ATOM     16  C   UNL     1      15.991 -23.466  40.445  1.00  0.00     0.202 C 
ATOM     17  C   UNL     1      18.458 -23.954  39.035  1.00  0.00     0.178 C 
ATOM     18  C   UNL     1      16.127 -24.694  39.550  1.00  0.00     0.179 C 
ATOM     19  C   UNL     1      17.131 -24.437  38.425  1.00  0.00     0.177 C 
BRANCH  16  20
ATOM     20  O   UNL     1      15.122 -23.792  41.540  1.00  0.00    -0.385 OA
ATOM     21  H   UNL     1      14.502 -23.035  41.615  1.00  0.00     0.211 HD
ENDBRANCH  16  20
BRANCH  17  22
ATOM     22  C   UNL     1      19.497 -23.665  37.944  1.00  0.00     0.191 C 
BRANCH  22  23
ATOM     23  O   UNL     1      20.403 -24.753  37.778  1.00  0.00    -0.394 OA
ATOM     24  H   UNL     1      20.564 -24.839  36.814  1.00  0.00     0.210 HD
ENDBRANCH  22  23
ENDBRANCH  17  22
BRANCH  18  25
ATOM     25  O   UNL     1      14.855 -25.036  38.975  1.00  0.00    -0.387 OA
ATOM     26  H   UNL     1      14.921 -25.990  38.768  1.00  0.00     0.211 HD
ENDBRANCH  18  25
BRANCH  19  27
ATOM     27  O   UNL     1      17.311 -25.636  37.662  1.00  0.00    -0.387 OA
ATOM     28  H   UNL     1      16.829 -25.473  36.823  1.00  0.00     0.211 HD
ENDBRANCH  19  27
ENDBRANCH  13  14
ENDBRANCH   7  13
ENDBRANCH   1   2
BRANCH   1  29
ATOM     29  C   UNL     1      19.515 -23.628  43.821  1.00  0.00     0.198 C 
BRANCH  29  30
ATOM     30  C   UNL     1      20.502 -24.738  43.420  1.00  0.00     0.180 C 
ATOM     31  O   UNL     1      20.362 -25.024  42.026  1.00  0.00    -0.332 OA
ATOM     32  C   UNL     1      21.956 -24.304  43.657  1.00  0.00     0.177 C 
ATOM     33  C   UNL     1      20.975 -26.268  41.655  1.00  0.00     0.339 C 
ATOM     34  C   UNL     1      22.941 -25.215  42.885  1.00  0.00     0.180 C 
ATOM     35  C   UNL     1      22.299 -26.535  42.422  1.00  0.00     0.214 C 
BRANCH  32  36
ATOM     36  O   UNL     1      22.247 -24.324  45.056  1.00  0.00    -0.387 OA
ATOM     37  H   UNL     1      23.170 -24.620  45.155  1.00  0.00     0.211 HD
ENDBRANCH  32  36
BRANCH  33  38
ATOM     38  O   UNL     1      21.296 -26.232  40.249  1.00  0.00    -0.462 OA
BRANCH  38  39
ATOM     39  C   UNL     1      20.956 -27.417  39.653  1.00  0.00     0.123 A 
ATOM     40  C   UNL     1      19.619 -27.726  39.424  1.00  0.00     0.047 A 
ATOM     41  C   UNL     1      21.966 -28.281  39.239  1.00  0.00     0.047 A 
ATOM     42  C   UNL     1      19.283 -28.944  38.834  1.00  0.00     0.016 A 
ATOM     43  C   UNL     1      21.629 -29.501  38.647  1.00  0.00     0.016 A 
ATOM     44  C   UNL     1      20.283 -29.852  38.460  1.00  0.00     0.021 A 
BRANCH  44  45
ATOM     45  C   UNL     1      19.936 -31.149  37.858  1.00  0.00     0.180 A 
ATOM     46  O   UNL     1      19.563 -32.104  38.792  1.00  0.00    -0.452 OA
ATOM     47  C   UNL     1      19.969 -31.357  36.530  1.00  0.00     0.208 A 
ATOM     48  C   UNL     1      19.228 -33.361  38.351  1.00  0.00     0.146 A 
ATOM     49  C   UNL     1      19.614 -32.700  36.020  1.00  0.00     0.238 A 
ATOM     50  C   UNL     1      18.873 -34.297  39.323  1.00  0.00     0.094 A 
ATOM     51  C   UNL     1      19.234 -33.717  37.003  1.00  0.00     0.111 A 
ATOM     52  O   UNL     1      19.645 -32.932  34.814  1.00  0.00    -0.285 OA
ATOM     53  C   UNL     1      18.524 -35.586  38.929  1.00  0.00     0.123 A 
ATOM     54  C   UNL     1      18.881 -35.014  36.620  1.00  0.00     0.134 A 
ATOM     55  C   UNL     1      18.525 -35.951  37.585  1.00  0.00     0.093 A 
BRANCH  47  56
ATOM     56  O   UNL     1      20.302 -30.388  35.596  1.00  0.00    -0.502 OA
ATOM     57  H   UNL     1      19.468 -29.883  35.461  1.00  0.00     0.293 HD
ENDBRANCH  47  56
BRANCH  53  58
ATOM     58  O   UNL     1      18.170 -36.535  39.842  1.00  0.00    -0.508 OA
ATOM     59  H   UNL     1      17.236 -36.770  39.718  1.00  0.00     0.293 HD
ENDBRANCH  53  58
BRANCH  54  60
ATOM     60  O   UNL     1      18.864 -35.429  35.315  1.00  0.00    -0.507 OA
ATOM     61  H   UNL     1      19.247 -34.720  34.755  1.00  0.00     0.293 HD
ENDBRANCH  54  60
ENDBRANCH  44  45
ENDBRANCH  38  39
ENDBRANCH  33  38
BRANCH  34  62
ATOM     62  O   UNL     1      23.486 -24.503  41.765  1.00  0.00    -0.387 OA
ATOM     63  H   UNL     1      22.756 -24.309  41.142  1.00  0.00     0.211 HD
ENDBRANCH  34  62
BRANCH  35  64
ATOM     64  O   UNL     1      22.037 -27.382  43.554  1.00  0.00    -0.384 OA
ATOM     65  H   UNL     1      22.566 -27.052  44.303  1.00  0.00     0.211 HD
ENDBRANCH  35  64
ENDBRANCH  29  30
ENDBRANCH   1  29
TORSDOF 21
ENDMDL
MODEL 5
REMARK VINA RESULT:    -9.327      3.010      6.854
REMARK INTER + INTRA:         -20.441
REMARK INTER:                 -17.308
REMARK INTRA:                  -3.134
REMARK UNBOUND:                -2.936
REMARK SMILES C[C@@H]1O[C@@H](OC[C@H]2O[C@@H](Oc3ccc(-c4oc5cc(O)cc(O)c5c(=O)c4O)cc3)[C@H](O)[C@@H](O)[C@@H]2O)[C@H](O[C@@H]2O[C@H](CO)[C@@H](O)[C@H](O)[C@H]2O)[C@H](O)[C@H]1O
REMARK SMILES IDX 5 1 4 2 2 3 3 4 52 5 50 6 37 7 1 8 53 9 51 11 38 13 39 14
REMARK SMILES IDX 40 15 48 16 41 17 46 18 44 19 49 20 42 22 43 23 47 25 45 27
REMARK SMILES IDX 6 29 7 30 8 31 35 32 9 33 33 34 31 35 36 36 10 38 11 39
REMARK SMILES IDX 12 40 30 41 13 42 29 43 14 44 15 45 16 46 27 47 17 48 25 49
REMARK SMILES IDX 18 50 24 51 26 52 19 53 22 54 21 55 28 56 20 58 23 60 34 62
REMARK SMILES IDX 32 64
REMARK H PARENT 53 10 51 12 49 21 43 24 47 26 45 28 36 37 28 57 20 59 23 61
REMARK H PARENT 34 63 32 65
ROOT
ATOM      1  O   UNL     1      18.267 -23.569  39.060  1.00  0.00    -0.347 OA
ENDROOT
BRANCH   1   2
ATOM      2  C   UNL     1      17.117 -22.861  38.582  1.00  0.00     0.282 C 
ATOM      3  C   UNL     1      15.635 -22.807  40.438  1.00  0.00     0.150 C 
ATOM      4  O   UNL     1      16.579 -22.080  39.656  1.00  0.00    -0.344 OA
ATOM      5  C   UNL     1      14.351 -23.021  39.619  1.00  0.00     0.174 C 
ATOM      6  C   UNL     1      14.665 -23.425  38.167  1.00  0.00     0.180 C 
ATOM      7  C   UNL     1      16.116 -23.892  37.993  1.00  0.00     0.209 C 
ATOM      8  C   UNL     1      15.356 -22.008  41.706  1.00  0.00     0.041 C 
BRANCH   5   9
ATOM      9  O   UNL     1      13.556 -24.035  40.245  1.00  0.00    -0.388 OA
ATOM     10  H   UNL     1      13.255 -23.669  41.098  1.00  0.00     0.211 HD
ENDBRANCH   5   9
BRANCH   6  11
ATOM     11  O   UNL     1      14.385 -22.326  37.284  1.00  0.00    -0.387 OA
ATOM     12  H   UNL     1      14.897 -21.567  37.639  1.00  0.00     0.211 HD
ENDBRANCH   6  11
BRANCH   7  13
ATOM     13  O   UNL     1      16.336 -24.061  36.574  1.00  0.00    -0.338 OA
BRANCH  13  14
ATOM     14  C   UNL     1      16.939 -25.315  36.238  1.00  0.00     0.282 C 
ATOM     15  O   UNL     1      18.293 -25.368  36.677  1.00  0.00    -0.341 OA
ATOM     16  C   UNL     1      16.875 -25.447  34.704  1.00  0.00     0.202 C 
ATOM     17  C   UNL     1      18.914 -26.622  36.369  1.00  0.00     0.178 C 
ATOM     18  C   UNL     1      17.572 -26.731  34.263  1.00  0.00     0.179 C 
ATOM     19  C   UNL     1      18.985 -26.807  34.844  1.00  0.00     0.177 C 
BRANCH  16  20
ATOM     20  O   UNL     1      15.522 -25.473  34.222  1.00  0.00    -0.385 OA
ATOM     21  H   UNL     1      14.963 -25.579  35.022  1.00  0.00     0.211 HD
ENDBRANCH  16  20
BRANCH  17  22
ATOM     22  C   UNL     1      20.312 -26.674  37.000  1.00  0.00     0.191 C 
BRANCH  22  23
ATOM     23  O   UNL     1      20.543 -25.561  37.860  1.00  0.00    -0.394 OA
ATOM     24  H   UNL     1      21.310 -25.075  37.489  1.00  0.00     0.210 HD
ENDBRANCH  22  23
ENDBRANCH  17  22
BRANCH  18  25
ATOM     25  O   UNL     1      17.649 -26.790  32.829  1.00  0.00    -0.387 OA
ATOM     26  H   UNL     1      18.512 -27.214  32.642  1.00  0.00     0.211 HD
ENDBRANCH  18  25
BRANCH  19  27
ATOM     27  O   UNL     1      19.578 -28.064  34.496  1.00  0.00    -0.387 OA
ATOM     28  H   UNL     1      20.470 -27.835  34.159  1.00  0.00     0.211 HD
ENDBRANCH  19  27
ENDBRANCH  13  14
ENDBRANCH   7  13
ENDBRANCH   1   2
BRANCH   1  29
ATOM     29  C   UNL     1      19.133 -22.763  39.869  1.00  0.00     0.198 C 
BRANCH  29  30
ATOM     30  C   UNL     1      19.586 -23.540  41.117  1.00  0.00     0.180 C 
ATOM     31  O   UNL     1      20.290 -24.719  40.720  1.00  0.00    -0.332 OA
ATOM     32  C   UNL     1      20.542 -22.702  41.980  1.00  0.00     0.177 C 
ATOM     33  C   UNL     1      20.429 -25.665  41.791  1.00  0.00     0.339 C 
ATOM     34  C   UNL     1      21.315 -23.595  42.980  1.00  0.00     0.180 C 
ATOM     35  C   UNL     1      20.675 -24.983  43.165  1.00  0.00     0.214 C 
BRANCH  32  36
ATOM     36  O   UNL     1      19.809 -21.690  42.673  1.00  0.00    -0.387 OA
ATOM     37  H   UNL     1      18.869 -21.947  42.649  1.00  0.00     0.211 HD
ENDBRANCH  32  36
BRANCH  33  38
ATOM     38  O   UNL     1      21.566 -26.512  41.525  1.00  0.00    -0.462 OA
BRANCH  38  39
ATOM     39  C   UNL     1      21.189 -27.597  40.781  1.00  0.00     0.123 A 
ATOM     40  C   UNL     1      19.852 -27.780  40.439  1.00  0.00     0.047 A 
ATOM     41  C   UNL     1      22.165 -28.483  40.333  1.00  0.00     0.047 A 
ATOM     42  C   UNL     1      19.476 -28.898  39.697  1.00  0.00     0.016 A 
ATOM     43  C   UNL     1      21.787 -29.604  39.589  1.00  0.00     0.016 A 
ATOM     44  C   UNL     1      20.437 -29.833  39.283  1.00  0.00     0.021 A 
BRANCH  44  45
ATOM     45  C   UNL     1      20.044 -31.028  38.520  1.00  0.00     0.180 A 
ATOM     46  O   UNL     1      19.615 -32.074  39.323  1.00  0.00    -0.452 OA
ATOM     47  C   UNL     1      20.092 -31.070  37.177  1.00  0.00     0.208 A 
ATOM     48  C   UNL     1      19.234 -33.250  38.725  1.00  0.00     0.146 A 
ATOM     49  C   UNL     1      19.688 -32.322  36.499  1.00  0.00     0.238 A 
ATOM     50  C   UNL     1      18.823 -34.283  39.567  1.00  0.00     0.094 A 
ATOM     51  C   UNL     1      19.248 -33.436  37.343  1.00  0.00     0.111 A 
ATOM     52  O   UNL     1      19.730 -32.404  35.274  1.00  0.00    -0.285 OA
ATOM     53  C   UNL     1      18.426 -35.497  39.012  1.00  0.00     0.123 A 
ATOM     54  C   UNL     1      18.847 -34.658  36.796  1.00  0.00     0.134 A 
ATOM     55  C   UNL     1      18.434 -35.691  37.632  1.00  0.00     0.093 A 
BRANCH  47  56
ATOM     56  O   UNL     1      20.482 -30.008  36.375  1.00  0.00    -0.502 OA
ATOM     57  H   UNL     1      21.396 -30.241  36.091  1.00  0.00     0.293 HD
ENDBRANCH  47  56
BRANCH  53  58
ATOM     58  O   UNL     1      18.016 -36.534  39.794  1.00  0.00    -0.508 OA
ATOM     59  H   UNL     1      18.424 -36.458  40.673  1.00  0.00     0.293 HD
ENDBRANCH  53  58
BRANCH  54  60
ATOM     60  O   UNL     1      18.835 -34.906  35.450  1.00  0.00    -0.507 OA
ATOM     61  H   UNL     1      18.020 -34.517  35.065  1.00  0.00     0.293 HD
ENDBRANCH  54  60
ENDBRANCH  44  45
ENDBRANCH  38  39
ENDBRANCH  33  38
BRANCH  34  62
ATOM     62  O   UNL     1      22.681 -23.725  42.562  1.00  0.00    -0.387 OA
ATOM     63  H   UNL     1      22.688 -23.967  41.614  1.00  0.00     0.211 HD
ENDBRANCH  34  62
BRANCH  35  64
ATOM     64  O   UNL     1      19.429 -24.864  43.872  1.00  0.00    -0.384 OA
ATOM     65  H   UNL     1      19.631 -24.641  44.799  1.00  0.00     0.211 HD
ENDBRANCH  35  64
ENDBRANCH  29  30
ENDBRANCH   1  29
TORSDOF 21
ENDMDL
MODEL 6
REMARK VINA RESULT:    -9.316      3.252      7.724
REMARK INTER + INTRA:         -20.420
REMARK INTER:                 -17.390
REMARK INTRA:                  -3.030
REMARK UNBOUND:                -2.936
REMARK SMILES C[C@@H]1O[C@@H](OC[C@H]2O[C@@H](Oc3ccc(-c4oc5cc(O)cc(O)c5c(=O)c4O)cc3)[C@H](O)[C@@H](O)[C@@H]2O)[C@H](O[C@@H]2O[C@H](CO)[C@@H](O)[C@H](O)[C@H]2O)[C@H](O)[C@H]1O
REMARK SMILES IDX 5 1 4 2 2 3 3 4 52 5 50 6 37 7 1 8 53 9 51 11 38 13 39 14
REMARK SMILES IDX 40 15 48 16 41 17 46 18 44 19 49 20 42 22 43 23 47 25 45 27
REMARK SMILES IDX 6 29 7 30 8 31 35 32 9 33 33 34 31 35 36 36 10 38 11 39
REMARK SMILES IDX 12 40 30 41 13 42 29 43 14 44 15 45 16 46 27 47 17 48 25 49
REMARK SMILES IDX 18 50 24 51 26 52 19 53 22 54 21 55 28 56 20 58 23 60 34 62
REMARK SMILES IDX 32 64
REMARK H PARENT 53 10 51 12 49 21 43 24 47 26 45 28 36 37 28 57 20 59 23 61
REMARK H PARENT 34 63 32 65
ROOT
ATOM      1  O   UNL     1      18.889 -23.664  38.643  1.00  0.00    -0.347 OA
ENDROOT
BRANCH   1   2
ATOM      2  C   UNL     1      17.613 -23.293  38.111  1.00  0.00     0.282 C 
ATOM      3  C   UNL     1      16.108 -23.554  39.930  1.00  0.00     0.150 C 
ATOM      4  O   UNL     1      16.859 -22.637  39.137  1.00  0.00    -0.344 OA
ATOM      5  C   UNL     1      14.948 -24.120  39.094  1.00  0.00     0.174 C 
ATOM      6  C   UNL     1      15.401 -24.483  37.668  1.00  0.00     0.180 C 
ATOM      7  C   UNL     1      16.928 -24.568  37.546  1.00  0.00     0.209 C 
ATOM      8  C   UNL     1      15.593 -22.807  41.156  1.00  0.00     0.041 C 
BRANCH   5   9
ATOM      9  O   UNL     1      14.419 -25.279  39.747  1.00  0.00    -0.388 OA
ATOM     10  H   UNL     1      13.600 -25.000  40.197  1.00  0.00     0.211 HD
ENDBRANCH   5   9
BRANCH   6  11
ATOM     11  O   UNL     1      14.878 -23.525  36.733  1.00  0.00    -0.387 OA
ATOM     12  H   UNL     1      15.563 -23.436  36.036  1.00  0.00     0.211 HD
ENDBRANCH   6  11
BRANCH   7  13
ATOM     13  O   UNL     1      17.229 -24.727  36.141  1.00  0.00    -0.338 OA
BRANCH  13  14
ATOM     14  C   UNL     1      17.411 -26.091  35.750  1.00  0.00     0.282 C 
ATOM     15  O   UNL     1      18.773 -26.357  35.431  1.00  0.00    -0.341 OA
ATOM     16  C   UNL     1      16.522 -26.326  34.513  1.00  0.00     0.202 C 
ATOM     17  C   UNL     1      18.985 -27.724  35.054  1.00  0.00     0.178 C 
ATOM     18  C   UNL     1      16.723 -27.745  33.989  1.00  0.00     0.179 C 
ATOM     19  C   UNL     1      18.209 -28.034  33.763  1.00  0.00     0.177 C 
BRANCH  16  20
ATOM     20  O   UNL     1      15.129 -26.141  34.807  1.00  0.00    -0.385 OA
ATOM     21  H   UNL     1      14.751 -27.045  34.856  1.00  0.00     0.211 HD
ENDBRANCH  16  20
BRANCH  17  22
ATOM     22  C   UNL     1      20.486 -27.982  34.874  1.00  0.00     0.191 C 
BRANCH  22  23
ATOM     23  O   UNL     1      21.182 -27.936  36.117  1.00  0.00    -0.394 OA
ATOM     24  H   UNL     1      22.139 -27.955  35.904  1.00  0.00     0.210 HD
ENDBRANCH  22  23
ENDBRANCH  17  22
BRANCH  18  25
ATOM     25  O   UNL     1      16.016 -27.926  32.752  1.00  0.00    -0.387 OA
ATOM     26  H   UNL     1      15.431 -27.144  32.681  1.00  0.00     0.211 HD
ENDBRANCH  18  25
BRANCH  19  27
ATOM     27  O   UNL     1      18.374 -29.401  33.367  1.00  0.00    -0.387 OA
ATOM     28  H   UNL     1      19.345 -29.524  33.295  1.00  0.00     0.211 HD
ENDBRANCH  19  27
ENDBRANCH  13  14
ENDBRANCH   7  13
ENDBRANCH   1   2
BRANCH   1  29
ATOM     29  C   UNL     1      19.323 -22.820  39.717  1.00  0.00     0.198 C 
BRANCH  29  30
ATOM     30  C   UNL     1      19.675 -23.659  40.958  1.00  0.00     0.180 C 
ATOM     31  O   UNL     1      20.386 -24.834  40.557  1.00  0.00    -0.332 OA
ATOM     32  C   UNL     1      20.583 -22.879  41.921  1.00  0.00     0.177 C 
ATOM     33  C   UNL     1      20.433 -25.827  41.592  1.00  0.00     0.339 C 
ATOM     34  C   UNL     1      21.270 -23.829  42.931  1.00  0.00     0.180 C 
ATOM     35  C   UNL     1      20.595 -25.210  43.009  1.00  0.00     0.214 C 
BRANCH  32  36
ATOM     36  O   UNL     1      19.821 -21.883  42.606  1.00  0.00    -0.387 OA
ATOM     37  H   UNL     1      19.427 -21.304  41.928  1.00  0.00     0.211 HD
ENDBRANCH  32  36
BRANCH  33  38
ATOM     38  O   UNL     1      21.572 -26.684  41.368  1.00  0.00    -0.462 OA
BRANCH  38  39
ATOM     39  C   UNL     1      21.230 -27.727  40.550  1.00  0.00     0.123 A 
ATOM     40  C   UNL     1      19.943 -27.812  40.027  1.00  0.00     0.047 A 
ATOM     41  C   UNL     1      22.198 -28.669  40.213  1.00  0.00     0.047 A 
ATOM     42  C   UNL     1      19.599 -28.889  39.210  1.00  0.00     0.016 A 
ATOM     43  C   UNL     1      21.853 -29.747  39.394  1.00  0.00     0.016 A 
ATOM     44  C   UNL     1      20.545 -29.878  38.903  1.00  0.00     0.021 A 
BRANCH  44  45
ATOM     45  C   UNL     1      20.183 -31.029  38.061  1.00  0.00     0.180 A 
ATOM     46  O   UNL     1      20.501 -30.850  36.723  1.00  0.00    -0.452 OA
ATOM     47  C   UNL     1      19.616 -32.139  38.567  1.00  0.00     0.208 A 
ATOM     48  C   UNL     1      20.198 -31.853  35.835  1.00  0.00     0.146 A 
ATOM     49  C   UNL     1      19.277 -33.240  37.638  1.00  0.00     0.238 A 
ATOM     50  C   UNL     1      20.519 -31.629  34.496  1.00  0.00     0.094 A 
ATOM     51  C   UNL     1      19.596 -33.051  36.221  1.00  0.00     0.111 A 
ATOM     52  O   UNL     1      18.747 -34.265  38.060  1.00  0.00    -0.285 OA
ATOM     53  C   UNL     1      20.234 -32.614  33.554  1.00  0.00     0.123 A 
ATOM     54  C   UNL     1      19.316 -34.033  35.266  1.00  0.00     0.134 A 
ATOM     55  C   UNL     1      19.635 -33.814  33.930  1.00  0.00     0.093 A 
BRANCH  47  56
ATOM     56  O   UNL     1      19.339 -32.331  39.912  1.00  0.00    -0.502 OA
ATOM     57  H   UNL     1      18.385 -32.576  39.930  1.00  0.00     0.293 HD
ENDBRANCH  47  56
BRANCH  53  58
ATOM     58  O   UNL     1      20.530 -32.441  32.235  1.00  0.00    -0.508 OA
ATOM     59  H   UNL     1      20.658 -33.308  31.816  1.00  0.00     0.293 HD
ENDBRANCH  53  58
BRANCH  54  60
ATOM     60  O   UNL     1      18.729 -35.230  35.577  1.00  0.00    -0.507 OA
ATOM     61  H   UNL     1      17.826 -35.058  35.921  1.00  0.00     0.293 HD
ENDBRANCH  54  60
ENDBRANCH  44  45
ENDBRANCH  38  39
ENDBRANCH  33  38
BRANCH  34  62
ATOM     62  O   UNL     1      22.659 -23.968  42.602  1.00  0.00    -0.387 OA
ATOM     63  H   UNL     1      22.731 -24.117  41.637  1.00  0.00     0.211 HD
ENDBRANCH  34  62
BRANCH  35  64
ATOM     64  O   UNL     1      19.306 -25.097  43.634  1.00  0.00    -0.384 OA
ATOM     65  H   UNL     1      18.712 -25.746  43.214  1.00  0.00     0.211 HD
ENDBRANCH  35  64
ENDBRANCH  29  30
ENDBRANCH   1  29
TORSDOF 21
ENDMDL
MODEL 7
REMARK VINA RESULT:    -9.132      1.705      3.234
REMARK INTER + INTRA:         -20.076
REMARK INTER:                 -17.946
REMARK INTRA:                  -2.130
REMARK UNBOUND:                -2.936
REMARK SMILES C[C@@H]1O[C@@H](OC[C@H]2O[C@@H](Oc3ccc(-c4oc5cc(O)cc(O)c5c(=O)c4O)cc3)[C@H](O)[C@@H](O)[C@@H]2O)[C@H](O[C@@H]2O[C@H](CO)[C@@H](O)[C@H](O)[C@H]2O)[C@H](O)[C@H]1O
REMARK SMILES IDX 5 1 4 2 2 3 3 4 52 5 50 6 37 7 1 8 53 9 51 11 38 13 39 14
REMARK SMILES IDX 40 15 48 16 41 17 46 18 44 19 49 20 42 22 43 23 47 25 45 27
REMARK SMILES IDX 6 29 7 30 8 31 35 32 9 33 33 34 31 35 36 36 10 38 11 39
REMARK SMILES IDX 12 40 30 41 13 42 29 43 14 44 15 45 16 46 27 47 17 48 25 49
REMARK SMILES IDX 18 50 24 51 26 52 19 53 22 54 21 55 28 56 20 58 23 60 34 62
REMARK SMILES IDX 32 64
REMARK H PARENT 53 10 51 12 49 21 43 24 47 26 45 28 36 37 28 57 20 59 23 61
REMARK H PARENT 34 63 32 65
ROOT
ATOM      1  O   UNL     1      19.829 -22.894  44.624  1.00  0.00    -0.347 OA
ENDROOT
BRANCH   1   2
ATOM      2  C   UNL     1      18.794 -22.020  45.088  1.00  0.00     0.282 C 
ATOM      3  C   UNL     1      17.982 -20.959  43.124  1.00  0.00     0.150 C 
ATOM      4  O   UNL     1      17.756 -21.972  44.102  1.00  0.00    -0.344 OA
ATOM      5  C   UNL     1      17.779 -19.576  43.766  1.00  0.00     0.174 C 
ATOM      6  C   UNL     1      18.426 -19.498  45.160  1.00  0.00     0.180 C 
ATOM      7  C   UNL     1      19.425 -20.636  45.404  1.00  0.00     0.209 C 
ATOM      8  C   UNL     1      17.004 -21.185  41.975  1.00  0.00     0.041 C 
BRANCH   5   9
ATOM      9  O   UNL     1      18.341 -18.574  42.911  1.00  0.00    -0.388 OA
ATOM     10  H   UNL     1      18.484 -18.993  42.042  1.00  0.00     0.211 HD
ENDBRANCH   5   9
BRANCH   6  11
ATOM     11  O   UNL     1      17.405 -19.504  46.172  1.00  0.00    -0.387 OA
ATOM     12  H   UNL     1      16.673 -18.959  45.810  1.00  0.00     0.211 HD
ENDBRANCH   6  11
BRANCH   7  13
ATOM     13  O   UNL     1      19.817 -20.562  46.794  1.00  0.00    -0.338 OA
BRANCH  13  14
ATOM     14  C   UNL     1      20.712 -21.606  47.188  1.00  0.00     0.282 C 
ATOM     15  O   UNL     1      20.055 -22.559  48.017  1.00  0.00    -0.341 OA
ATOM     16  C   UNL     1      21.867 -20.940  47.961  1.00  0.00     0.202 C 
ATOM     17  C   UNL     1      20.926 -23.628  48.411  1.00  0.00     0.178 C 
ATOM     18  C   UNL     1      22.826 -22.006  48.483  1.00  0.00     0.179 C 
ATOM     19  C   UNL     1      22.071 -23.074  49.276  1.00  0.00     0.177 C 
BRANCH  16  20
ATOM     20  O   UNL     1      22.606 -20.022  47.140  1.00  0.00    -0.385 OA
ATOM     21  H   UNL     1      22.756 -19.232  47.703  1.00  0.00     0.211 HD
ENDBRANCH  16  20
BRANCH  17  22
ATOM     22  C   UNL     1      20.124 -24.694  49.168  1.00  0.00     0.191 C 
BRANCH  22  23
ATOM     23  O   UNL     1      20.141 -24.466  50.575  1.00  0.00    -0.394 OA
ATOM     24  H   UNL     1      20.348 -25.328  50.996  1.00  0.00     0.210 HD
ENDBRANCH  22  23
ENDBRANCH  17  22
BRANCH  18  25
ATOM     25  O   UNL     1      23.822 -21.409  49.331  1.00  0.00    -0.387 OA
ATOM     26  H   UNL     1      23.346 -20.709  49.823  1.00  0.00     0.211 HD
ENDBRANCH  18  25
BRANCH  19  27
ATOM     27  O   UNL     1      22.979 -24.109  49.669  1.00  0.00    -0.387 OA
ATOM     28  H   UNL     1      23.839 -23.851  49.273  1.00  0.00     0.211 HD
ENDBRANCH  19  27
ENDBRANCH  13  14
ENDBRANCH   7  13
ENDBRANCH   1   2
BRANCH   1  29
ATOM     29  C   UNL     1      19.412 -24.261  44.515  1.00  0.00     0.198 C 
BRANCH  29  30
ATOM     30  C   UNL     1      20.530 -25.122  43.905  1.00  0.00     0.180 C 
ATOM     31  O   UNL     1      20.307 -25.277  42.501  1.00  0.00    -0.332 OA
ATOM     32  C   UNL     1      21.905 -24.459  44.081  1.00  0.00     0.177 C 
ATOM     33  C   UNL     1      21.084 -26.341  41.934  1.00  0.00     0.339 C 
ATOM     34  C   UNL     1      22.951 -25.087  43.128  1.00  0.00     0.180 C 
ATOM     35  C   UNL     1      22.504 -26.444  42.557  1.00  0.00     0.214 C 
BRANCH  32  36
ATOM     36  O   UNL     1      22.330 -24.576  45.441  1.00  0.00    -0.387 OA
ATOM     37  H   UNL     1      21.566 -24.893  45.955  1.00  0.00     0.211 HD
ENDBRANCH  32  36
BRANCH  33  38
ATOM     38  O   UNL     1      21.255 -26.096  40.522  1.00  0.00    -0.462 OA
BRANCH  38  39
ATOM     39  C   UNL     1      20.960 -27.224  39.804  1.00  0.00     0.123 A 
ATOM     40  C   UNL     1      19.634 -27.565  39.553  1.00  0.00     0.047 A 
ATOM     41  C   UNL     1      22.001 -27.992  39.291  1.00  0.00     0.047 A 
ATOM     42  C   UNL     1      19.344 -28.726  38.837  1.00  0.00     0.016 A 
ATOM     43  C   UNL     1      21.710 -29.155  38.574  1.00  0.00     0.016 A 
ATOM     44  C   UNL     1      20.378 -29.544  38.359  1.00  0.00     0.021 A 
BRANCH  44  45
ATOM     45  C   UNL     1      20.079 -30.782  37.624  1.00  0.00     0.180 A 
ATOM     46  O   UNL     1      20.395 -30.708  36.275  1.00  0.00    -0.452 OA
ATOM     47  C   UNL     1      19.566 -31.869  38.226  1.00  0.00     0.208 A 
ATOM     48  C   UNL     1      20.147 -31.800  35.480  1.00  0.00     0.146 A 
ATOM     49  C   UNL     1      19.288 -33.065  37.399  1.00  0.00     0.238 A 
ATOM     50  C   UNL     1      20.465 -31.681  34.127  1.00  0.00     0.094 A 
ATOM     51  C   UNL     1      19.605 -32.987  35.971  1.00  0.00     0.111 A 
ATOM     52  O   UNL     1      18.808 -34.073  37.911  1.00  0.00    -0.285 OA
ATOM     53  C   UNL     1      20.235 -32.759  33.276  1.00  0.00     0.123 A 
ATOM     54  C   UNL     1      19.379 -34.063  35.108  1.00  0.00     0.134 A 
ATOM     55  C   UNL     1      19.695 -33.949  33.758  1.00  0.00     0.093 A 
BRANCH  47  56
ATOM     56  O   UNL     1      19.291 -31.955  39.582  1.00  0.00    -0.502 OA
ATOM     57  H   UNL     1      19.427 -32.906  39.798  1.00  0.00     0.293 HD
ENDBRANCH  47  56
BRANCH  53  58
ATOM     58  O   UNL     1      20.528 -32.689  31.947  1.00  0.00    -0.508 OA
ATOM     59  H   UNL     1      20.399 -33.562  31.541  1.00  0.00     0.293 HD
ENDBRANCH  53  58
BRANCH  54  60
ATOM     60  O   UNL     1      18.852 -35.256  35.524  1.00  0.00    -0.507 OA
ATOM     61  H   UNL     1      18.232 -35.583  34.836  1.00  0.00     0.293 HD
ENDBRANCH  54  60
ENDBRANCH  44  45
ENDBRANCH  38  39
ENDBRANCH  33  38
BRANCH  34  62
ATOM     62  O   UNL     1      23.254 -24.171  42.067  1.00  0.00    -0.387 OA
ATOM     63  H   UNL     1      24.226 -24.066  42.022  1.00  0.00     0.211 HD
ENDBRANCH  34  62
BRANCH  35  64
ATOM     64  O   UNL     1      22.503 -27.441  43.592  1.00  0.00    -0.384 OA
ATOM     65  H   UNL     1      21.866 -27.162  44.276  1.00  0.00     0.211 HD
ENDBRANCH  35  64
ENDBRANCH  29  30
ENDBRANCH   1  29
TORSDOF 21
ENDMDL
MODEL 8
REMARK VINA RESULT:    -9.077      1.495      4.529
REMARK INTER + INTRA:         -19.973
REMARK INTER:                 -17.203
REMARK INTRA:                  -2.770
REMARK UNBOUND:                -2.936
REMARK SMILES C[C@@H]1O[C@@H](OC[C@H]2O[C@@H](Oc3ccc(-c4oc5cc(O)cc(O)c5c(=O)c4O)cc3)[C@H](O)[C@@H](O)[C@@H]2O)[C@H](O[C@@H]2O[C@H](CO)[C@@H](O)[C@H](O)[C@H]2O)[C@H](O)[C@H]1O
REMARK SMILES IDX 5 1 4 2 2 3 3 4 52 5 50 6 37 7 1 8 53 9 51 11 38 13 39 14
REMARK SMILES IDX 40 15 48 16 41 17 46 18 44 19 49 20 42 22 43 23 47 25 45 27
REMARK SMILES IDX 6 29 7 30 8 31 35 32 9 33 33 34 31 35 36 36 10 38 11 39
REMARK SMILES IDX 12 40 30 41 13 42 29 43 14 44 15 45 16 46 27 47 17 48 25 49
REMARK SMILES IDX 18 50 24 51 26 52 19 53 22 54 21 55 28 56 20 58 23 60 34 62
REMARK SMILES IDX 32 64
REMARK H PARENT 53 10 51 12 49 21 43 24 47 26 45 28 36 37 28 57 20 59 23 61
REMARK H PARENT 34 63 32 65
ROOT
ATOM      1  O   UNL     1      18.758 -22.747  43.911  1.00  0.00    -0.347 OA
ENDROOT
BRANCH   1   2
ATOM      2  C   UNL     1      18.930 -21.460  44.514  1.00  0.00     0.282 C 
ATOM      3  C   UNL     1      19.178 -21.914  46.833  1.00  0.00     0.150 C 
ATOM      4  O   UNL     1      19.840 -21.585  45.614  1.00  0.00    -0.344 OA
ATOM      5  C   UNL     1      18.368 -20.700  47.318  1.00  0.00     0.174 C 
ATOM      6  C   UNL     1      17.616 -20.021  46.158  1.00  0.00     0.180 C 
ATOM      7  C   UNL     1      17.532 -20.915  44.915  1.00  0.00     0.209 C 
ATOM      8  C   UNL     1      20.237 -22.316  47.853  1.00  0.00     0.041 C 
BRANCH   5   9
ATOM      9  O   UNL     1      17.437 -21.125  48.319  1.00  0.00    -0.388 OA
ATOM     10  H   UNL     1      17.911 -21.101  49.171  1.00  0.00     0.211 HD
ENDBRANCH   5   9
BRANCH   6  11
ATOM     11  O   UNL     1      18.249 -18.771  45.834  1.00  0.00    -0.387 OA
ATOM     12  H   UNL     1      19.120 -18.792  46.285  1.00  0.00     0.211 HD
ENDBRANCH   6  11
BRANCH   7  13
ATOM     13  O   UNL     1      16.978 -20.106  43.852  1.00  0.00    -0.338 OA
BRANCH  13  14
ATOM     14  C   UNL     1      15.810 -20.677  43.254  1.00  0.00     0.282 C 
ATOM     15  O   UNL     1      15.201 -21.628  44.121  1.00  0.00    -0.341 OA
ATOM     16  C   UNL     1      16.263 -21.364  41.951  1.00  0.00     0.202 C 
ATOM     17  C   UNL     1      14.017 -22.202  43.553  1.00  0.00     0.178 C 
ATOM     18  C   UNL     1      15.078 -22.066  41.294  1.00  0.00     0.179 C 
ATOM     19  C   UNL     1      14.380 -22.997  42.287  1.00  0.00     0.177 C 
BRANCH  16  20
ATOM     20  O   UNL     1      16.817 -20.429  41.013  1.00  0.00    -0.385 OA
ATOM     21  H   UNL     1      17.203 -19.710  41.559  1.00  0.00     0.211 HD
ENDBRANCH  16  20
BRANCH  17  22
ATOM     22  C   UNL     1      13.328 -23.096  44.591  1.00  0.00     0.191 C 
BRANCH  22  23
ATOM     23  O   UNL     1      13.536 -24.480  44.317  1.00  0.00    -0.394 OA
ATOM     24  H   UNL     1      12.744 -24.792  43.831  1.00  0.00     0.210 HD
ENDBRANCH  22  23
ENDBRANCH  17  22
BRANCH  18  25
ATOM     25  O   UNL     1      15.519 -22.834  40.161  1.00  0.00    -0.387 OA
ATOM     26  H   UNL     1      15.270 -22.295  39.382  1.00  0.00     0.211 HD
ENDBRANCH  18  25
BRANCH  19  27
ATOM     27  O   UNL     1      13.217 -23.565  41.674  1.00  0.00    -0.387 OA
ATOM     28  H   UNL     1      12.947 -22.910  40.995  1.00  0.00     0.211 HD
ENDBRANCH  19  27
ENDBRANCH  13  14
ENDBRANCH   7  13
ENDBRANCH   1   2
BRANCH   1  29
ATOM     29  C   UNL     1      19.397 -22.866  42.634  1.00  0.00     0.198 C 
BRANCH  29  30
ATOM     30  C   UNL     1      20.265 -24.134  42.578  1.00  0.00     0.180 C 
ATOM     31  O   UNL     1      20.369 -24.586  41.225  1.00  0.00    -0.332 OA
ATOM     32  C   UNL     1      21.690 -23.859  43.082  1.00  0.00     0.177 C 
ATOM     33  C   UNL     1      20.849 -25.935  41.130  1.00  0.00     0.339 C 
ATOM     34  C   UNL     1      22.661 -24.982  42.645  1.00  0.00     0.180 C 
ATOM     35  C   UNL     1      21.934 -26.262  42.193  1.00  0.00     0.214 C 
BRANCH  32  36
ATOM     36  O   UNL     1      21.684 -23.727  44.505  1.00  0.00    -0.387 OA
ATOM     37  H   UNL     1      20.981 -23.090  44.732  1.00  0.00     0.211 HD
ENDBRANCH  32  36
BRANCH  33  38
ATOM     38  O   UNL     1      21.450 -26.130  39.833  1.00  0.00    -0.462 OA
BRANCH  38  39
ATOM     39  C   UNL     1      21.081 -27.341  39.314  1.00  0.00     0.123 A 
ATOM     40  C   UNL     1      19.747 -27.593  39.006  1.00  0.00     0.047 A 
ATOM     41  C   UNL     1      22.062 -28.295  39.057  1.00  0.00     0.047 A 
ATOM     42  C   UNL     1      19.380 -28.838  38.496  1.00  0.00     0.016 A 
ATOM     43  C   UNL     1      21.693 -29.541  38.545  1.00  0.00     0.016 A 
ATOM     44  C   UNL     1      20.346 -29.831  38.281  1.00  0.00     0.021 A 
BRANCH  44  45
ATOM     45  C   UNL     1      19.962 -31.155  37.765  1.00  0.00     0.180 A 
ATOM     46  O   UNL     1      19.567 -32.037  38.760  1.00  0.00    -0.452 OA
ATOM     47  C   UNL     1      19.985 -31.449  36.454  1.00  0.00     0.208 A 
ATOM     48  C   UNL     1      19.199 -33.311  38.402  1.00  0.00     0.146 A 
ATOM     49  C   UNL     1      19.593 -32.812  36.032  1.00  0.00     0.238 A 
ATOM     50  C   UNL     1      18.823 -34.172  39.433  1.00  0.00     0.094 A 
ATOM     51  C   UNL     1      19.190 -33.753  37.080  1.00  0.00     0.111 A 
ATOM     52  O   UNL     1      19.613 -33.122  34.843  1.00  0.00    -0.285 OA
ATOM     53  C   UNL     1      18.439 -35.475  39.124  1.00  0.00     0.123 A 
ATOM     54  C   UNL     1      18.802 -35.063  36.782  1.00  0.00     0.134 A 
ATOM     55  C   UNL     1      18.425 -35.926  37.806  1.00  0.00     0.093 A 
BRANCH  47  56
ATOM     56  O   UNL     1      20.340 -30.551  35.458  1.00  0.00    -0.502 OA
ATOM     57  H   UNL     1      19.498 -30.094  35.231  1.00  0.00     0.293 HD
ENDBRANCH  47  56
BRANCH  53  58
ATOM     58  O   UNL     1      18.064 -36.353  40.097  1.00  0.00    -0.508 OA
ATOM     59  H   UNL     1      17.868 -35.865  40.914  1.00  0.00     0.293 HD
ENDBRANCH  53  58
BRANCH  54  60
ATOM     60  O   UNL     1      18.769 -35.560  35.507  1.00  0.00    -0.507 OA
ATOM     61  H   UNL     1      19.686 -35.775  35.229  1.00  0.00     0.293 HD
ENDBRANCH  54  60
ENDBRANCH  44  45
ENDBRANCH  38  39
ENDBRANCH  33  38
BRANCH  34  62
ATOM     62  O   UNL     1      23.523 -24.502  41.604  1.00  0.00    -0.387 OA
ATOM     63  H   UNL     1      24.058 -23.766  41.966  1.00  0.00     0.211 HD
ENDBRANCH  34  62
BRANCH  35  64
ATOM     64  O   UNL     1      21.322 -26.908  43.321  1.00  0.00    -0.384 OA
ATOM     65  H   UNL     1      20.460 -27.260  43.033  1.00  0.00     0.211 HD
ENDBRANCH  35  64
ENDBRANCH  29  30
ENDBRANCH   1  29
TORSDOF 21
ENDMDL
MODEL 9
REMARK VINA RESULT:    -9.010      2.387      5.645
REMARK INTER + INTRA:         -19.848
REMARK INTER:                 -16.781
REMARK INTRA:                  -3.067
REMARK UNBOUND:                -2.936
REMARK SMILES C[C@@H]1O[C@@H](OC[C@H]2O[C@@H](Oc3ccc(-c4oc5cc(O)cc(O)c5c(=O)c4O)cc3)[C@H](O)[C@@H](O)[C@@H]2O)[C@H](O[C@@H]2O[C@H](CO)[C@@H](O)[C@H](O)[C@H]2O)[C@H](O)[C@H]1O
REMARK SMILES IDX 5 1 4 2 2 3 3 4 52 5 50 6 37 7 1 8 53 9 51 11 38 13 39 14
REMARK SMILES IDX 40 15 48 16 41 17 46 18 44 19 49 20 42 22 43 23 47 25 45 27
REMARK SMILES IDX 6 29 7 30 8 31 35 32 9 33 33 34 31 35 36 36 10 38 11 39
REMARK SMILES IDX 12 40 30 41 13 42 29 43 14 44 15 45 16 46 27 47 17 48 25 49
REMARK SMILES IDX 18 50 24 51 26 52 19 53 22 54 21 55 28 56 20 58 23 60 34 62
REMARK SMILES IDX 32 64
REMARK H PARENT 53 10 51 12 49 21 43 24 47 26 45 28 36 37 28 57 20 59 23 61
REMARK H PARENT 34 63 32 65
ROOT
ATOM      1  O   UNL     1      18.269 -23.252  42.188  1.00  0.00    -0.347 OA
ENDROOT
BRANCH   1   2
ATOM      2  C   UNL     1      17.485 -22.054  42.145  1.00  0.00     0.282 C 
ATOM      3  C   UNL     1      15.562 -22.553  43.448  1.00  0.00     0.150 C 
ATOM      4  O   UNL     1      16.825 -21.892  43.406  1.00  0.00    -0.344 OA
ATOM      5  C   UNL     1      14.565 -21.805  42.547  1.00  0.00     0.174 C 
ATOM      6  C   UNL     1      15.207 -21.393  41.210  1.00  0.00     0.180 C 
ATOM      7  C   UNL     1      16.515 -22.146  40.935  1.00  0.00     0.209 C 
ATOM      8  C   UNL     1      15.088 -22.577  44.897  1.00  0.00     0.041 C 
BRANCH   5   9
ATOM      9  O   UNL     1      13.429 -22.643  42.304  1.00  0.00    -0.388 OA
ATOM     10  H   UNL     1      13.686 -23.266  41.599  1.00  0.00     0.211 HD
ENDBRANCH   5   9
BRANCH   6  11
ATOM     11  O   UNL     1      15.435 -19.974  41.195  1.00  0.00    -0.387 OA
ATOM     12  H   UNL     1      16.398 -19.861  41.344  1.00  0.00     0.211 HD
ENDBRANCH   6  11
BRANCH   7  13
ATOM     13  O   UNL     1      17.108 -21.545  39.761  1.00  0.00    -0.338 OA
BRANCH  13  14
ATOM     14  C   UNL     1      17.298 -22.469  38.685  1.00  0.00     0.282 C 
ATOM     15  O   UNL     1      16.393 -23.563  38.782  1.00  0.00    -0.341 OA
ATOM     16  C   UNL     1      18.751 -22.974  38.778  1.00  0.00     0.202 C 
ATOM     17  C   UNL     1      16.549 -24.495  37.704  1.00  0.00     0.178 C 
ATOM     18  C   UNL     1      19.005 -24.027  37.703  1.00  0.00     0.179 C 
ATOM     19  C   UNL     1      17.948 -25.131  37.766  1.00  0.00     0.177 C 
BRANCH  16  20
ATOM     20  O   UNL     1      19.702 -21.912  38.610  1.00  0.00    -0.385 OA
ATOM     21  H   UNL     1      20.482 -22.173  39.146  1.00  0.00     0.211 HD
ENDBRANCH  16  20
BRANCH  17  22
ATOM     22  C   UNL     1      15.450 -25.562  37.780  1.00  0.00     0.191 C 
BRANCH  22  23
ATOM     23  O   UNL     1      15.968 -26.824  38.192  1.00  0.00    -0.394 OA
ATOM     24  H   UNL     1      16.322 -26.700  39.099  1.00  0.00     0.210 HD
ENDBRANCH  22  23
ENDBRANCH  17  22
BRANCH  18  25
ATOM     25  O   UNL     1      20.306 -24.612  37.875  1.00  0.00    -0.387 OA
ATOM     26  H   UNL     1      20.795 -23.976  38.436  1.00  0.00     0.211 HD
ENDBRANCH  18  25
BRANCH  19  27
ATOM     27  O   UNL     1      18.153 -26.051  36.686  1.00  0.00    -0.387 OA
ATOM     28  H   UNL     1      19.065 -26.389  36.816  1.00  0.00     0.211 HD
ENDBRANCH  19  27
ENDBRANCH  13  14
ENDBRANCH   7  13
ENDBRANCH   1   2
BRANCH   1  29
ATOM     29  C   UNL     1      19.115 -23.335  43.342  1.00  0.00     0.198 C 
BRANCH  29  30
ATOM     30  C   UNL     1      20.166 -24.444  43.165  1.00  0.00     0.180 C 
ATOM     31  O   UNL     1      20.263 -24.798  41.783  1.00  0.00    -0.332 OA
ATOM     32  C   UNL     1      21.557 -23.974  43.617  1.00  0.00     0.177 C 
ATOM     33  C   UNL     1      20.941 -26.047  41.580  1.00  0.00     0.339 C 
ATOM     34  C   UNL     1      22.665 -24.902  43.065  1.00  0.00     0.180 C 
ATOM     35  C   UNL     1      22.123 -26.254  42.568  1.00  0.00     0.214 C 
BRANCH  32  36
ATOM     36  O   UNL     1      21.611 -23.923  45.045  1.00  0.00    -0.387 OA
ATOM     37  H   UNL     1      22.548 -23.998  45.301  1.00  0.00     0.211 HD
ENDBRANCH  32  36
BRANCH  33  38
ATOM     38  O   UNL     1      21.491 -26.072  40.247  1.00  0.00    -0.462 OA
BRANCH  38  39
ATOM     39  C   UNL     1      21.182 -27.252  39.626  1.00  0.00     0.123 A 
ATOM     40  C   UNL     1      22.191 -28.040  39.080  1.00  0.00     0.047 A 
ATOM     41  C   UNL     1      19.855 -27.671  39.590  1.00  0.00     0.047 A 
ATOM     42  C   UNL     1      21.864 -29.230  38.432  1.00  0.00     0.016 A 
ATOM     43  C   UNL     1      19.528 -28.865  38.941  1.00  0.00     0.016 A 
ATOM     44  C   UNL     1      20.527 -29.644  38.337  1.00  0.00     0.021 A 
BRANCH  44  45
ATOM     45  C   UNL     1      20.172 -30.886  37.635  1.00  0.00     0.180 A 
ATOM     46  O   UNL     1      20.459 -30.850  36.278  1.00  0.00    -0.452 OA
ATOM     47  C   UNL     1      19.638 -31.943  38.271  1.00  0.00     0.208 A 
ATOM     48  C   UNL     1      20.158 -31.950  35.512  1.00  0.00     0.146 A 
ATOM     49  C   UNL     1      19.303 -33.146  37.476  1.00  0.00     0.238 A 
ATOM     50  C   UNL     1      20.448 -31.869  34.150  1.00  0.00     0.094 A 
ATOM     51  C   UNL     1      19.589 -33.108  36.040  1.00  0.00     0.111 A 
ATOM     52  O   UNL     1      18.802 -34.128  38.020  1.00  0.00    -0.285 OA
ATOM     53  C   UNL     1      20.164 -32.956  33.328  1.00  0.00     0.123 A 
ATOM     54  C   UNL     1      19.309 -34.194  35.206  1.00  0.00     0.134 A 
ATOM     55  C   UNL     1      19.597 -34.118  33.847  1.00  0.00     0.093 A 
BRANCH  47  56
ATOM     56  O   UNL     1      19.392 -31.992  39.635  1.00  0.00    -0.502 OA
ATOM     57  H   UNL     1      20.257 -32.247  40.030  1.00  0.00     0.293 HD
ENDBRANCH  47  56
BRANCH  53  58
ATOM     58  O   UNL     1      20.429 -32.923  31.992  1.00  0.00    -0.508 OA
ATOM     59  H   UNL     1      21.388 -32.993  31.851  1.00  0.00     0.293 HD
ENDBRANCH  53  58
BRANCH  54  60
ATOM     60  O   UNL     1      18.753 -35.360  35.659  1.00  0.00    -0.507 OA
ATOM     61  H   UNL     1      19.065 -35.523  36.575  1.00  0.00     0.293 HD
ENDBRANCH  54  60
ENDBRANCH  44  45
ENDBRANCH  38  39
ENDBRANCH  33  38
BRANCH  34  62
ATOM     62  O   UNL     1      23.381 -24.234  42.017  1.00  0.00    -0.387 OA
ATOM     63  H   UNL     1      22.774 -24.119  41.258  1.00  0.00     0.211 HD
ENDBRANCH  34  62
BRANCH  35  64
ATOM     64  O   UNL     1      21.684 -27.051  43.681  1.00  0.00    -0.384 OA
ATOM     65  H   UNL     1      22.280 -26.871  44.431  1.00  0.00     0.211 HD
ENDBRANCH  35  64
ENDBRANCH  29  30
ENDBRANCH   1  29
TORSDOF 21
ENDMDL
