REMARK SMILES CC(C)(O)C#Cc1ccc2[nH]c3c(c2c1)-c1nc(N)ncc1CCC3
REMARK SMILES IDX 6 1 7 2 8 3 9 4 10 5 11 6 12 7 13 8 14 9 15 10 5 12 2 13
REMARK SMILES IDX 1 14 3 15 4 16 16 18 17 19 22 20 18 21 21 22 20 23 23 24
REMARK SMILES IDX 19 26 25 29 24 30
REMARK H PARENT 11 11 4 17 19 27 19 28
REMARK Flexibility Score:    8.900
ROOT
ATOM      1  C   UNL     1       2.917  -0.323  -1.100  1.00  0.00    -0.064 C 
ATOM      2  C   UNL     1       1.637   0.200  -1.469  1.00  0.00     0.025 A 
ATOM      3  C   UNL     1       1.458   0.769  -2.728  1.00  0.00     0.019 A 
ATOM      4  C   UNL     1       0.218   1.292  -3.108  1.00  0.00     0.028 A 
ATOM      5  C   UNL     1      -0.830   1.218  -2.182  1.00  0.00     0.046 A 
ATOM      6  N   UNL     1      -2.124   1.651  -2.288  1.00  0.00    -0.358 N 
ATOM      7  C   UNL     1      -2.835   1.400  -1.135  1.00  0.00     0.025 A 
ATOM      8  C   UNL     1      -1.978   0.752  -0.249  1.00  0.00     0.029 A 
ATOM      9  C   UNL     1      -0.697   0.651  -0.917  1.00  0.00     0.010 A 
ATOM     10  C   UNL     1       0.573   0.137  -0.560  1.00  0.00     0.028 A 
ATOM     11  H   UNL     1      -2.500   2.087  -3.087  1.00  0.00     0.166 HD
ENDROOT
BRANCH   1  12
ATOM     12  C   UNL     1       3.990  -0.761  -0.784  1.00  0.00    -0.064 C 
ATOM     13  C   UNL     1       5.304  -1.292  -0.387  1.00  0.00     0.120 C 
ATOM     14  C   UNL     1       5.243  -1.878   1.022  1.00  0.00     0.056 C 
ATOM     15  C   UNL     1       5.783  -2.340  -1.388  1.00  0.00     0.056 C 
BRANCH  13  16
ATOM     16  O   UNL     1       6.255  -0.227  -0.387  1.00  0.00    -0.378 OA
ATOM     17  H   UNL     1       7.124  -0.570  -0.127  1.00  0.00     0.212 HD
ENDBRANCH  13  16
ENDBRANCH   1  12
BRANCH   8  18
ATOM     18  C   UNL     1      -2.315   0.267   1.098  1.00  0.00     0.081 A 
ATOM     19  N   UNL     1      -1.488  -0.705   1.549  1.00  0.00    -0.213 NA
ATOM     20  C   UNL     1      -3.367   0.741   1.863  1.00  0.00    -0.003 A 
ATOM     21  C   UNL     1      -1.686  -1.181   2.776  1.00  0.00     0.220 A 
ATOM     22  C   UNL     1      -3.475   0.166   3.117  1.00  0.00     0.121 A 
ATOM     23  N   UNL     1      -2.661  -0.793   3.590  1.00  0.00    -0.222 NA
BRANCH  20  24
ATOM     24  C   UNL     1      -4.351   1.786   1.441  1.00  0.00     0.040 CG0
ATOM     25  G   UNL     1      -5.043   1.409   0.136  1.00  0.00     0.000 G0
ENDBRANCH  20  24
BRANCH  21  26
ATOM     26  N   UNL     1      -0.847  -2.184   3.214  1.00  0.00    -0.368 N 
ATOM     27  H   UNL     1      -0.113  -2.499   2.638  1.00  0.00     0.159 HD
ATOM     28  H   UNL     1      -0.982  -2.587   4.102  1.00  0.00     0.159 HD
ENDBRANCH  21  26
ENDBRANCH   8  18
BRANCH   7  29
ATOM     29  C   UNL     1      -4.255   1.859  -1.081  1.00  0.00     0.055 C 
BRANCH  29  30
ATOM     30  C   UNL     1      -5.043   1.409   0.136  1.00  0.00     0.011 CG0
ATOM     31  G   UNL     1      -4.351   1.786   1.441  1.00  0.00     0.000 G0
ENDBRANCH  29  30
ENDBRANCH   7  29
TORSDOF 3
