REMARK SMILES COc1cc2ncnc(Nc3cccc(O)c3)c2cc1OC
REMARK SMILES IDX 10 1 9 3 3 4 4 5 20 6 5 7 19 8 6 9 18 10 7 11 8 12 2 13 1 14
REMARK SMILES IDX 21 15 22 16 11 17 12 18 17 19 13 20 15 21 14 22 16 23
REMARK H PARENT 10 2 16 24
ROOT
ATOM      1  N   UNL     1       1.367  -0.810   0.036  1.00  0.00    -0.340 N 
ATOM      2  H   UNL     1       0.748  -1.552   0.225  1.00  0.00     0.168 HD
ENDROOT
BRANCH   1   3
ATOM      3  C   UNL     1       0.770   0.381  -0.464  1.00  0.00     0.141 A 
ATOM      4  C   UNL     1      -3.405   0.979  -0.335  1.00  0.00     0.162 A 
ATOM      5  C   UNL     1      -2.527   1.899  -0.919  1.00  0.00     0.079 A 
ATOM      6  C   UNL     1      -2.891  -0.187   0.253  1.00  0.00     0.161 A 
ATOM      7  C   UNL     1      -1.154   1.692  -0.946  1.00  0.00     0.080 A 
ATOM      8  C   UNL     1      -1.513  -0.409   0.226  1.00  0.00     0.064 A 
ATOM      9  N   UNL     1      -0.385   2.625  -1.514  1.00  0.00    -0.236 NA
ATOM     10  C   UNL     1      -0.632   0.522  -0.382  1.00  0.00     0.047 A 
ATOM     11  C   UNL     1       0.932   2.400  -1.517  1.00  0.00     0.224 A 
ATOM     12  N   UNL     1       1.550   1.328  -1.017  1.00  0.00    -0.219 NA
BRANCH   4  13
ATOM     13  O   UNL     1      -4.768   1.131  -0.282  1.00  0.00    -0.493 OA
ATOM     14  C   UNL     1      -5.327   2.298  -0.870  1.00  0.00     0.278 C 
ENDBRANCH   4  13
BRANCH   6  15
ATOM     15  O   UNL     1      -3.806  -1.039   0.815  1.00  0.00    -0.493 OA
ATOM     16  C   UNL     1      -3.314  -2.146   1.557  1.00  0.00     0.278 C 
ENDBRANCH   6  15
ENDBRANCH   1   3
BRANCH   1  17
ATOM     17  C   UNL     1       2.733  -1.066   0.298  1.00  0.00     0.043 A 
ATOM     18  C   UNL     1       3.184  -2.397   0.309  1.00  0.00     0.026 A 
ATOM     19  C   UNL     1       3.633  -0.062   0.677  1.00  0.00     0.072 A 
ATOM     20  C   UNL     1       4.509  -2.710   0.629  1.00  0.00     0.006 A 
ATOM     21  C   UNL     1       4.954  -0.380   0.992  1.00  0.00     0.117 A 
ATOM     22  C   UNL     1       5.399  -1.695   0.966  1.00  0.00     0.046 A 
BRANCH  21  23
ATOM     23  O   UNL     1       5.850   0.587   1.345  1.00  0.00    -0.508 OA
ATOM     24  H   UNL     1       6.733   0.353   1.553  1.00  0.00     0.293 HD
ENDBRANCH  21  23
ENDBRANCH   1  17
TORSDOF 5
