REMARK SMILES C#CC[N@H+](C)CCCOc1ccc(Cl)cc1Cl
REMARK SMILES IDX 7 1 6 2 4 3 5 4 3 6 2 7 1 8 8 9 9 10 10 11 11 12 16 13 12 14
REMARK SMILES IDX 15 15 13 16 17 17 14 18
REMARK H PARENT 4 5
ROOT
ATOM      1  C   UNL     1       0.729  -1.709  -0.068  1.00  0.00     0.103 C 
ENDROOT
BRANCH   1   2
ATOM      2  C   UNL     1       1.637  -0.506   0.227  1.00  0.00     0.266 C 
BRANCH   2   3
ATOM      3  N   UNL     1       3.064  -0.823   0.043  1.00  0.00    -0.327 N 
ATOM      4  C   UNL     1       3.416  -1.032  -1.362  1.00  0.00     0.333 C 
ATOM      5  H   UNL     1       3.225  -1.710   0.522  1.00  0.00     0.348 HD
BRANCH   3   6
ATOM      6  C   UNL     1       3.934   0.188   0.671  1.00  0.00     0.353 C 
ATOM      7  C   UNL     1       3.811   1.543   0.107  1.00  0.00    -0.047 C 
ATOM      8  C   UNL     1       3.709   2.649  -0.350  1.00  0.00     0.010 C 
ENDBRANCH   3   6
ENDBRANCH   2   3
ENDBRANCH   1   2
BRANCH   1   9
ATOM      9  C   UNL     1      -0.724  -1.427   0.312  1.00  0.00     0.235 C 
BRANCH   9  10
ATOM     10  O   UNL     1      -1.202  -0.339  -0.476  1.00  0.00    -0.492 OA
BRANCH  10  11
ATOM     11  C   UNL     1      -2.467   0.126  -0.234  1.00  0.00     0.137 A 
ATOM     12  C   UNL     1      -3.379  -0.476   0.639  1.00  0.00     0.049 A 
ATOM     13  C   UNL     1      -2.859   1.284  -0.930  1.00  0.00     0.084 A 
ATOM     14  C   UNL     1      -4.654   0.073   0.817  1.00  0.00     0.024 A 
ATOM     15  C   UNL     1      -4.131   1.833  -0.753  1.00  0.00     0.045 A 
ATOM     16  C   UNL     1      -5.023   1.222   0.121  1.00  0.00     0.042 A 
ATOM     17  Cl  UNL     1      -1.781   2.080  -2.026  1.00  0.00    -0.080 Cl
ATOM     18  Cl  UNL     1      -6.593   1.888   0.346  1.00  0.00    -0.084 Cl
ENDBRANCH  10  11
ENDBRANCH   9  10
ENDBRANCH   1   9
TORSDOF 6
