REMARK SMILES COc1ccc2c(c1)[nH]c1c(C)nccc12
REMARK SMILES IDX 3 1 4 2 5 3 6 4 7 5 8 6 9 7 10 8 11 9 12 10 13 11 14 12
REMARK SMILES IDX 15 13 16 14 2 16 1 17
REMARK H PARENT 9 15
ROOT
ATOM      1  C   UNL     1       2.739   0.352   0.032  1.00  0.00     0.120 A 
ATOM      2  C   UNL     1       2.519  -0.968   0.422  1.00  0.00     0.047 A 
ATOM      3  C   UNL     1       1.218  -1.487   0.503  1.00  0.00     0.015 A 
ATOM      4  C   UNL     1       0.117  -0.666   0.186  1.00  0.00     0.008 A 
ATOM      5  C   UNL     1       0.363   0.649  -0.200  1.00  0.00     0.050 A 
ATOM      6  C   UNL     1       1.655   1.182  -0.285  1.00  0.00     0.073 A 
ATOM      7  N   UNL     1      -0.856   1.232  -0.450  1.00  0.00    -0.353 N 
ATOM      8  C   UNL     1      -1.883   0.341  -0.239  1.00  0.00     0.068 A 
ATOM      9  C   UNL     1      -3.267   0.502  -0.371  1.00  0.00     0.061 A 
ATOM     10  C   UNL     1      -3.931   1.773  -0.798  1.00  0.00     0.069 C 
ATOM     11  N   UNL     1      -4.059  -0.568  -0.092  1.00  0.00    -0.259 NA
ATOM     12  C   UNL     1      -3.499  -1.734   0.297  1.00  0.00     0.112 A 
ATOM     13  C   UNL     1      -2.139  -1.948   0.443  1.00  0.00     0.031 A 
ATOM     14  C   UNL     1      -1.300  -0.861   0.162  1.00  0.00     0.011 A 
ATOM     15  H   UNL     1      -0.978   2.164  -0.742  1.00  0.00     0.167 HD
ENDROOT
BRANCH   1  16
ATOM     16  O   UNL     1       3.961   0.961  -0.081  1.00  0.00    -0.497 OA
ATOM     17  C   UNL     1       5.104   0.174   0.227  1.00  0.00     0.278 C 
ENDBRANCH   1  16
TORSDOF 1
