REMARK SMILES O=C1Nc2ccccc2C1=O
REMARK SMILES IDX 1 1 2 2 3 3 4 4 5 5 6 6 7 7 8 8 9 9 10 10 11 11
REMARK H PARENT 3 12
ROOT
ATOM      1  O   UNL     1       3.704  -0.267  -0.087  1.00  0.00    -0.265 OA
ATOM      2  C   UNL     1       2.497  -0.174  -0.058  1.00  0.00     0.296 C 
ATOM      3  N   UNL     1       1.560  -1.181  -0.183  1.00  0.00    -0.318 N 
ATOM      4  C   UNL     1       0.268  -0.672  -0.096  1.00  0.00     0.053 A 
ATOM      5  C   UNL     1      -0.914  -1.377  -0.177  1.00  0.00     0.027 A 
ATOM      6  C   UNL     1      -2.105  -0.651  -0.061  1.00  0.00     0.002 A 
ATOM      7  C   UNL     1      -2.093   0.747   0.131  1.00  0.00     0.001 A 
ATOM      8  C   UNL     1      -0.887   1.447   0.211  1.00  0.00     0.014 A 
ATOM      9  C   UNL     1       0.273   0.708   0.094  1.00  0.00     0.051 A 
ATOM     10  C   UNL     1       1.674   1.132   0.133  1.00  0.00     0.252 C 
ATOM     11  O   UNL     1       2.095   2.255   0.282  1.00  0.00    -0.283 OA
ATOM     12  H   UNL     1       1.778  -2.132  -0.317  1.00  0.00     0.170 HD
ENDROOT
TORSDOF 0
