REMARK SMILES C#CC[NH2+][C@@H]1CCc2ccccc21
REMARK SMILES IDX 1 1 2 2 3 3 4 4 5 7 6 8 13 9 7 10 12 11 8 12 11 13 9 14
REMARK SMILES IDX 10 15
REMARK H PARENT 4 5 4 6
ROOT
ATOM      1  C   UNL     1       4.825   0.076   1.562  1.00  0.00     0.010 C 
ATOM      2  C   UNL     1       3.894  -0.359   0.940  1.00  0.00    -0.047 C 
ATOM      3  C   UNL     1       2.756  -0.889   0.178  1.00  0.00     0.352 C 
ENDROOT
BRANCH   3   4
ATOM      4  N   UNL     1       1.541  -0.191   0.575  1.00  0.00    -0.330 N 
ATOM      5  H   UNL     1       1.653   0.802   0.372  1.00  0.00     0.347 HD
ATOM      6  H   UNL     1       1.399  -0.355   1.572  1.00  0.00     0.347 HD
BRANCH   4   7
ATOM      7  C   UNL     1       0.362  -0.682  -0.129  1.00  0.00     0.214 C 
ATOM      8  C   UNL     1       0.336  -0.340  -1.636  1.00  0.00     0.075 C 
ATOM      9  C   UNL     1      -0.909  -0.009   0.321  1.00  0.00     0.012 A 
ATOM     10  C   UNL     1      -1.145  -0.280  -2.038  1.00  0.00     0.042 C 
ATOM     11  C   UNL     1      -1.301   0.328   1.608  1.00  0.00     0.010 A 
ATOM     12  C   UNL     1      -1.765   0.210  -0.767  1.00  0.00    -0.039 A 
ATOM     13  C   UNL     1      -2.558   0.907   1.793  1.00  0.00     0.001 A 
ATOM     14  C   UNL     1      -3.019   0.771  -0.593  1.00  0.00     0.004 A 
ATOM     15  C   UNL     1      -3.411   1.126   0.700  1.00  0.00     0.000 A 
ENDBRANCH   4   7
ENDBRANCH   3   4
TORSDOF 2
