REMARK SMILES C[C@H](/N=C/c1ccc(OCc2cccc(F)c2)cc1)C(N)=O
REMARK SMILES IDX 5 1 6 2 7 3 8 4 18 5 19 6 4 7 3 8 2 9 1 10 20 11 21 12 22 13
REMARK SMILES IDX 9 16 10 17 11 18 12 19 17 20 13 21 15 22 14 23 16 24
REMARK H PARENT 21 14 21 15
ROOT
ATOM      1  C   UNL     1      -1.349   1.263  -0.351  1.00  0.00    -0.007 A 
ATOM      2  C   UNL     1      -1.222  -0.128  -0.388  1.00  0.00     0.013 A 
ATOM      3  C   UNL     1       0.028  -0.725  -0.180  1.00  0.00     0.047 A 
ATOM      4  C   UNL     1       1.150   0.069   0.064  1.00  0.00     0.119 A 
ATOM      5  C   UNL     1       1.013   1.460   0.099  1.00  0.00     0.047 A 
ATOM      6  C   UNL     1      -0.231   2.062  -0.108  1.00  0.00     0.013 A 
ENDROOT
BRANCH   1   7
ATOM      7  C   UNL     1      -2.657   1.911  -0.567  1.00  0.00     0.114 C 
ATOM      8  N   UNL     1      -3.735   1.223  -0.748  1.00  0.00    -0.280 NA
BRANCH   8   9
ATOM      9  C   UNL     1      -4.943   2.063  -0.954  1.00  0.00     0.191 C 
ATOM     10  C   UNL     1      -5.951   1.249  -1.753  1.00  0.00     0.044 C 
BRANCH   9  11
ATOM     11  C   UNL     1      -5.528   2.432   0.415  1.00  0.00     0.241 C 
ATOM     12  N   UNL     1      -5.557   1.410   1.323  1.00  0.00    -0.368 N 
ATOM     13  O   UNL     1      -5.967   3.544   0.689  1.00  0.00    -0.273 OA
ATOM     14  H   UNL     1      -5.198   0.526   1.080  1.00  0.00     0.159 HD
ATOM     15  H   UNL     1      -5.935   1.559   2.220  1.00  0.00     0.159 HD
ENDBRANCH   9  11
ENDBRANCH   8   9
ENDBRANCH   1   7
BRANCH   4  16
ATOM     16  O   UNL     1       2.422  -0.380   0.282  1.00  0.00    -0.489 OA
BRANCH  16  17
ATOM     17  C   UNL     1       2.630  -1.790   0.256  1.00  0.00     0.265 C 
BRANCH  17  18
ATOM     18  C   UNL     1       4.093  -2.047   0.513  1.00  0.00    -0.008 A 
ATOM     19  C   UNL     1       5.016  -2.038  -0.545  1.00  0.00     0.007 A 
ATOM     20  C   UNL     1       4.560  -2.259   1.818  1.00  0.00     0.046 A 
ATOM     21  C   UNL     1       6.376  -2.258  -0.307  1.00  0.00     0.003 A 
ATOM     22  C   UNL     1       5.916  -2.477   2.043  1.00  0.00     0.123 A 
ATOM     23  C   UNL     1       6.826  -2.482   0.993  1.00  0.00     0.039 A 
ATOM     24  F   UNL     1       6.351  -2.683   3.293  1.00  0.00    -0.207 F 
ENDBRANCH  17  18
ENDBRANCH  16  17
ENDBRANCH   4  16
TORSDOF 6
