REMARK SMILES CC(C)(O)C#Cc1ccc2[nH]c3c(c2c1)-c1nc(N)ncc1CCC3
REMARK SMILES IDX 6 1 7 2 8 3 9 4 10 5 11 6 12 7 13 8 14 9 15 10 5 12 2 13
REMARK SMILES IDX 1 14 3 15 4 16 16 18 17 19 22 20 18 21 21 22 20 23 23 24
REMARK SMILES IDX 19 26 25 29 24 30
REMARK H PARENT 11 11 4 17 19 27 19 28
REMARK Flexibility Score:    8.900
ROOT
ATOM      1  C   UNL     1       2.696   1.381   0.802  1.00  0.00    -0.064 C 
ATOM      2  C   UNL     1       1.429   1.005   1.351  1.00  0.00     0.025 A 
ATOM      3  C   UNL     1       1.129   1.311   2.676  1.00  0.00     0.019 A 
ATOM      4  C   UNL     1      -0.100   0.949   3.235  1.00  0.00     0.028 A 
ATOM      5  C   UNL     1      -1.012   0.272   2.415  1.00  0.00     0.046 A 
ATOM      6  N   UNL     1      -2.265  -0.199   2.702  1.00  0.00    -0.358 N 
ATOM      7  C   UNL     1      -2.829  -0.826   1.613  1.00  0.00     0.025 A 
ATOM      8  C   UNL     1      -1.918  -0.736   0.563  1.00  0.00     0.029 A 
ATOM      9  C   UNL     1      -0.756  -0.047   1.085  1.00  0.00     0.010 A 
ATOM     10  C   UNL     1       0.500   0.329   0.551  1.00  0.00     0.028 A 
ATOM     11  H   UNL     1      -2.707  -0.103   3.577  1.00  0.00     0.166 HD
ENDROOT
BRANCH   1  12
ATOM     12  C   UNL     1       3.760   1.692   0.338  1.00  0.00    -0.064 C 
ATOM     13  C   UNL     1       5.063   2.063  -0.235  1.00  0.00     0.120 C 
ATOM     14  C   UNL     1       5.146   1.639  -1.700  1.00  0.00     0.056 C 
ATOM     15  C   UNL     1       5.305   3.564  -0.093  1.00  0.00     0.056 C 
BRANCH  13  16
ATOM     16  O   UNL     1       6.096   1.389   0.484  1.00  0.00    -0.378 OA
ATOM     17  H   UNL     1       6.959   1.629   0.111  1.00  0.00     0.212 HD
ENDBRANCH  13  16
ENDBRANCH   1  12
BRANCH   8  18
ATOM     18  C   UNL     1      -2.108  -1.243  -0.805  1.00  0.00     0.081 A 
ATOM     19  N   UNL     1      -1.317  -0.640  -1.723  1.00  0.00    -0.213 NA
ATOM     20  C   UNL     1      -2.997  -2.244  -1.155  1.00  0.00    -0.003 A 
ATOM     21  C   UNL     1      -1.384  -1.059  -2.984  1.00  0.00     0.220 A 
ATOM     22  C   UNL     1      -2.982  -2.589  -2.496  1.00  0.00     0.121 A 
ATOM     23  N   UNL     1      -2.199  -2.012  -3.423  1.00  0.00    -0.222 NA
BRANCH  20  24
ATOM     24  C   UNL     1      -3.934  -2.945  -0.222  1.00  0.00     0.040 CG0
ATOM     25  G   UNL     1      -4.830  -1.958   0.517  1.00  0.00     0.000 G0
ENDBRANCH  20  24
BRANCH  21  26
ATOM     26  N   UNL     1      -0.585  -0.422  -3.911  1.00  0.00    -0.368 N 
ATOM     27  H   UNL     1       0.032   0.290  -3.623  1.00  0.00     0.159 HD
ATOM     28  H   UNL     1      -0.632  -0.679  -4.860  1.00  0.00     0.159 HD
ENDBRANCH  21  26
ENDBRANCH   8  18
BRANCH   7  29
ATOM     29  C   UNL     1      -4.181  -1.434   1.786  1.00  0.00     0.055 C 
BRANCH  29  30
ATOM     30  C   UNL     1      -4.830  -1.958   0.517  1.00  0.00     0.011 CG0
ATOM     31  G   UNL     1      -3.934  -2.945  -0.222  1.00  0.00     0.000 G0
ENDBRANCH  29  30
ENDBRANCH   7  29
TORSDOF 3
