REMARK SMILES Clc1ccccc1Oc1ccc(Nc2ncnc3[nH]ccc23)cc1
REMARK SMILES IDX 9 1 10 2 11 3 12 4 23 5 24 6 8 7 7 8 2 9 3 10 4 11 6 12 5 13
REMARK SMILES IDX 1 14 13 15 14 17 15 18 22 19 16 20 21 21 18 22 17 23 20 24
REMARK SMILES IDX 19 25
REMARK H PARENT 13 16 19 26
ROOT
ATOM      1  C   UNL     1      -1.762   0.885  -0.241  1.00  0.00     0.127 A 
ATOM      2  C   UNL     1      -1.481   1.186   1.091  1.00  0.00     0.049 A 
ATOM      3  C   UNL     1      -0.154   1.346   1.500  1.00  0.00     0.030 A 
ATOM      4  C   UNL     1       0.904   1.210   0.591  1.00  0.00     0.040 A 
ATOM      5  C   UNL     1       0.601   0.950  -0.751  1.00  0.00     0.030 A 
ATOM      6  C   UNL     1      -0.724   0.789  -1.166  1.00  0.00     0.049 A 
ENDROOT
BRANCH   1   7
ATOM      7  O   UNL     1      -3.042   0.742  -0.725  1.00  0.00    -0.456 OA
BRANCH   7   8
ATOM      8  C   UNL     1      -3.915  -0.014   0.026  1.00  0.00     0.146 A 
ATOM      9  C   UNL     1      -5.155   0.525   0.384  1.00  0.00     0.083 A 
ATOM     10  C   UNL     1      -6.066  -0.244   1.111  1.00  0.00     0.024 A 
ATOM     11  C   UNL     1      -5.746  -1.556   1.467  1.00  0.00     0.002 A 
ATOM     12  C   UNL     1      -3.605  -1.337   0.365  1.00  0.00     0.049 A 
ATOM     13  C   UNL     1      -4.519  -2.103   1.092  1.00  0.00     0.004 A 
ATOM     14  Cl  UNL     1      -5.590   2.141  -0.038  1.00  0.00    -0.080 Cl
ENDBRANCH   7   8
ENDBRANCH   1   7
BRANCH   4  15
ATOM     15  N   UNL     1       2.218   1.412   1.061  1.00  0.00    -0.340 N 
ATOM     16  H   UNL     1       2.300   1.874   1.927  1.00  0.00     0.168 HD
BRANCH  15  17
ATOM     17  C   UNL     1       3.424   1.038   0.447  1.00  0.00     0.143 A 
ATOM     18  N   UNL     1       4.414   1.966   0.433  1.00  0.00    -0.218 NA
ATOM     19  C   UNL     1       3.697  -0.232  -0.094  1.00  0.00     0.061 A 
ATOM     20  C   UNL     1       5.592   1.645  -0.137  1.00  0.00     0.226 A 
ATOM     21  C   UNL     1       3.014  -1.475  -0.231  1.00  0.00     0.033 A 
ATOM     22  C   UNL     1       4.957  -0.415  -0.643  1.00  0.00     0.142 A 
ATOM     23  N   UNL     1       5.950   0.483  -0.708  1.00  0.00    -0.218 NA
ATOM     24  C   UNL     1       3.861  -2.356  -0.872  1.00  0.00     0.085 A 
ATOM     25  N   UNL     1       5.037  -1.695  -1.118  1.00  0.00    -0.346 N 
ATOM     26  H   UNL     1       5.822  -2.084  -1.568  1.00  0.00     0.167 HD
ENDBRANCH  15  17
ENDBRANCH   4  15
TORSDOF 4
