REMARK SMILES O=c1c(O)c(-c2ccc(O)cc2)oc2cc(O)cc(O)c12
REMARK SMILES IDX 1 1 2 2 3 3 5 4 13 5 14 6 15 7 16 8 18 9 19 10 21 11 4 12
REMARK SMILES IDX 6 14 7 15 12 16 8 17 11 18 9 19 10 20 20 22 17 24
REMARK H PARENT 4 13 10 21 20 23 17 25
ROOT
ATOM      1  O   UNL     1       1.792  -1.969   2.181  1.00  0.00    -0.285 OA
ATOM      2  C   UNL     1       1.356  -1.245   1.288  1.00  0.00     0.238 A 
ATOM      3  C   UNL     1      -0.087  -0.921   1.219  1.00  0.00     0.208 A 
ATOM      4  C   UNL     1      -0.519  -0.122   0.226  1.00  0.00     0.180 A 
ATOM      5  O   UNL     1       0.313   0.431  -0.741  1.00  0.00    -0.452 OA
ATOM      6  C   UNL     1       1.653   0.142  -0.708  1.00  0.00     0.146 A 
ATOM      7  C   UNL     1       2.449   0.708  -1.704  1.00  0.00     0.094 A 
ATOM      8  C   UNL     1       3.817   0.449  -1.717  1.00  0.00     0.123 A 
ATOM      9  C   UNL     1       4.404  -0.365  -0.752  1.00  0.00     0.093 A 
ATOM     10  C   UNL     1       3.604  -0.926   0.240  1.00  0.00     0.134 A 
ATOM     11  C   UNL     1       2.229  -0.673   0.261  1.00  0.00     0.111 A 
ENDROOT
BRANCH   3  12
ATOM     12  O   UNL     1      -0.899  -1.454   2.203  1.00  0.00    -0.502 OA
ATOM     13  H   UNL     1      -0.531  -2.004   2.867  1.00  0.00     0.293 HD
ENDBRANCH   3  12
BRANCH   4  14
ATOM     14  C   UNL     1      -1.933   0.281   0.065  1.00  0.00     0.021 A 
ATOM     15  C   UNL     1      -2.980  -0.652   0.129  1.00  0.00     0.016 A 
ATOM     16  C   UNL     1      -2.250   1.623  -0.199  1.00  0.00     0.016 A 
ATOM     17  C   UNL     1      -4.309  -0.255  -0.049  1.00  0.00     0.047 A 
ATOM     18  C   UNL     1      -3.577   2.023  -0.378  1.00  0.00     0.047 A 
ATOM     19  C   UNL     1      -4.595   1.082  -0.300  1.00  0.00     0.115 A 
BRANCH  19  20
ATOM     20  O   UNL     1      -5.875   1.514  -0.479  1.00  0.00    -0.508 OA
ATOM     21  H   UNL     1      -6.586   0.905  -0.433  1.00  0.00     0.293 HD
ENDBRANCH  19  20
ENDBRANCH   4  14
BRANCH  10  22
ATOM     22  O   UNL     1       4.233  -1.718   1.163  1.00  0.00    -0.507 OA
ATOM     23  H   UNL     1       5.157  -1.858   1.108  1.00  0.00     0.293 HD
ENDBRANCH  10  22
BRANCH   8  24
ATOM     24  O   UNL     1       4.559   1.022  -2.708  1.00  0.00    -0.508 OA
ATOM     25  H   UNL     1       4.144   1.567  -3.348  1.00  0.00     0.293 HD
ENDBRANCH   8  24
TORSDOF 5
