MODEL 1
REMARK VINA RESULT:    -8.433      0.000      0.000
REMARK INTER + INTRA:          -9.556
REMARK INTER:                  -9.420
REMARK INTRA:                  -0.137
REMARK UNBOUND:                -0.137
REMARK SMILES C#CC[NH2+][C@@H]1CCc2ccccc21
REMARK SMILES IDX 1 1 2 2 3 3 4 4 5 7 6 8 13 9 7 10 12 11 8 12 11 13 9 14
REMARK SMILES IDX 10 15
REMARK H PARENT 4 5 4 6
ROOT
ATOM      1  C   UNL     1      54.132 149.246  24.780  1.00  0.00     0.010 C 
ATOM      2  C   UNL     1      54.147 150.444  24.694  1.00  0.00    -0.047 C 
ATOM      3  C   UNL     1      54.183 151.895  24.574  1.00  0.00     0.352 C 
ENDROOT
BRANCH   3   4
ATOM      4  N   UNL     1      53.256 152.534  25.549  1.00  0.00    -0.330 N 
ATOM      5  H   UNL     1      52.387 151.990  25.540  1.00  0.00     0.347 HD
ATOM      6  H   UNL     1      53.657 152.394  26.482  1.00  0.00     0.347 HD
BRANCH   4   7
ATOM      7  C   UNL     1      52.881 153.971  25.439  1.00  0.00     0.214 C 
ATOM      8  C   UNL     1      53.979 154.858  24.825  1.00  0.00     0.075 C 
ATOM      9  C   UNL     1      52.551 154.704  26.702  1.00  0.00     0.012 A 
ATOM     10  C   UNL     1      53.653 156.290  25.281  1.00  0.00     0.042 C 
ATOM     11  C   UNL     1      51.835 154.281  27.812  1.00  0.00     0.010 A 
ATOM     12  C   UNL     1      53.004 156.029  26.606  1.00  0.00    -0.039 A 
ATOM     13  C   UNL     1      51.616 155.193  28.848  1.00  0.00     0.001 A 
ATOM     14  C   UNL     1      52.779 156.941  27.623  1.00  0.00     0.004 A 
ATOM     15  C   UNL     1      52.088 156.511  28.756  1.00  0.00     0.000 A 
ENDBRANCH   4   7
ENDBRANCH   3   4
TORSDOF 2
ENDMDL
MODEL 2
REMARK VINA RESULT:    -7.899      1.469      5.160
REMARK INTER + INTRA:          -8.959
REMARK INTER:                  -8.716
REMARK INTRA:                  -0.243
REMARK UNBOUND:                -0.137
REMARK SMILES C#CC[NH2+][C@@H]1CCc2ccccc21
REMARK SMILES IDX 1 1 2 2 3 3 4 4 5 7 6 8 13 9 7 10 12 11 8 12 11 13 9 14
REMARK SMILES IDX 10 15
REMARK H PARENT 4 5 4 6
ROOT
ATOM      1  C   UNL     1      52.263 157.904  29.297  1.00  0.00     0.010 C 
ATOM      2  C   UNL     1      51.996 156.740  29.168  1.00  0.00    -0.047 C 
ATOM      3  C   UNL     1      51.671 155.327  29.034  1.00  0.00     0.352 C 
ENDROOT
BRANCH   3   4
ATOM      4  N   UNL     1      51.724 154.899  27.608  1.00  0.00    -0.330 N 
ATOM      5  H   UNL     1      51.352 153.945  27.566  1.00  0.00     0.347 HD
ATOM      6  H   UNL     1      51.050 155.478  27.095  1.00  0.00     0.347 HD
BRANCH   4   7
ATOM      7  C   UNL     1      52.999 154.914  26.838  1.00  0.00     0.214 C 
ATOM      8  C   UNL     1      53.108 156.075  25.834  1.00  0.00     0.075 C 
ATOM      9  C   UNL     1      53.311 153.725  25.984  1.00  0.00     0.012 A 
ATOM     10  C   UNL     1      54.165 155.632  24.808  1.00  0.00     0.042 C 
ATOM     11  C   UNL     1      53.118 152.375  26.237  1.00  0.00     0.010 A 
ATOM     12  C   UNL     1      53.972 154.146  24.819  1.00  0.00    -0.039 A 
ATOM     13  C   UNL     1      53.557 151.451  25.285  1.00  0.00     0.001 A 
ATOM     14  C   UNL     1      54.420 153.236  23.878  1.00  0.00     0.004 A 
ATOM     15  C   UNL     1      54.199 151.879  24.113  1.00  0.00     0.000 A 
ENDBRANCH   4   7
ENDBRANCH   3   4
TORSDOF 2
ENDMDL
MODEL 3
REMARK VINA RESULT:    -7.820      0.994      2.318
REMARK INTER + INTRA:          -8.871
REMARK INTER:                  -8.648
REMARK INTRA:                  -0.224
REMARK UNBOUND:                -0.137
REMARK SMILES C#CC[NH2+][C@@H]1CCc2ccccc21
REMARK SMILES IDX 1 1 2 2 3 3 4 4 5 7 6 8 13 9 7 10 12 11 8 12 11 13 9 14
REMARK SMILES IDX 10 15
REMARK H PARENT 4 5 4 6
ROOT
ATOM      1  C   UNL     1      54.333 150.492  24.735  1.00  0.00     0.010 C 
ATOM      2  C   UNL     1      54.169 151.645  24.441  1.00  0.00    -0.047 C 
ATOM      3  C   UNL     1      53.988 153.041  24.070  1.00  0.00     0.352 C 
ENDROOT
BRANCH   3   4
ATOM      4  N   UNL     1      52.952 153.690  24.922  1.00  0.00    -0.330 N 
ATOM      5  H   UNL     1      52.918 154.679  24.653  1.00  0.00     0.347 HD
ATOM      6  H   UNL     1      52.045 153.300  24.643  1.00  0.00     0.347 HD
BRANCH   4   7
ATOM      7  C   UNL     1      53.020 153.635  26.409  1.00  0.00     0.214 C 
ATOM      8  C   UNL     1      52.047 152.625  27.041  1.00  0.00     0.075 C 
ATOM      9  C   UNL     1      52.714 154.888  27.167  1.00  0.00     0.012 A 
ATOM     10  C   UNL     1      51.871 153.081  28.499  1.00  0.00     0.042 C 
ATOM     11  C   UNL     1      53.064 156.202  26.890  1.00  0.00     0.010 A 
ATOM     12  C   UNL     1      52.048 154.563  28.360  1.00  0.00    -0.039 A 
ATOM     13  C   UNL     1      52.698 157.193  27.804  1.00  0.00     0.001 A 
ATOM     14  C   UNL     1      51.695 155.539  29.275  1.00  0.00     0.004 A 
ATOM     15  C   UNL     1      52.015 156.865  28.984  1.00  0.00     0.000 A 
ENDBRANCH   4   7
ENDBRANCH   3   4
TORSDOF 2
ENDMDL
MODEL 4
REMARK VINA RESULT:    -7.701      1.571      4.494
REMARK INTER + INTRA:          -8.738
REMARK INTER:                  -8.465
REMARK INTRA:                  -0.273
REMARK UNBOUND:                -0.137
REMARK SMILES C#CC[NH2+][C@@H]1CCc2ccccc21
REMARK SMILES IDX 1 1 2 2 3 3 4 4 5 7 6 8 13 9 7 10 12 11 8 12 11 13 9 14
REMARK SMILES IDX 10 15
REMARK H PARENT 4 5 4 6
ROOT
ATOM      1  C   UNL     1      51.096 155.642  29.635  1.00  0.00     0.010 C 
ATOM      2  C   UNL     1      51.654 154.710  29.121  1.00  0.00    -0.047 C 
ATOM      3  C   UNL     1      52.347 153.583  28.513  1.00  0.00     0.352 C 
ENDROOT
BRANCH   3   4
ATOM      4  N   UNL     1      51.623 153.100  27.304  1.00  0.00    -0.330 N 
ATOM      5  H   UNL     1      51.272 152.162  27.519  1.00  0.00     0.347 HD
ATOM      6  H   UNL     1      50.789 153.687  27.198  1.00  0.00     0.347 HD
BRANCH   4   7
ATOM      7  C   UNL     1      52.290 153.032  25.973  1.00  0.00     0.214 C 
ATOM      8  C   UNL     1      53.274 151.858  25.828  1.00  0.00     0.075 C 
ATOM      9  C   UNL     1      53.126 154.200  25.553  1.00  0.00     0.012 A 
ATOM     10  C   UNL     1      54.216 152.252  24.678  1.00  0.00     0.042 C 
ATOM     11  C   UNL     1      52.899 155.559  25.716  1.00  0.00     0.010 A 
ATOM     12  C   UNL     1      54.232 153.743  24.818  1.00  0.00    -0.039 A 
ATOM     13  C   UNL     1      53.821 156.456  25.171  1.00  0.00     0.001 A 
ATOM     14  C   UNL     1      55.141 154.628  24.264  1.00  0.00     0.004 A 
ATOM     15  C   UNL     1      54.935 155.994  24.454  1.00  0.00     0.000 A 
ENDBRANCH   4   7
ENDBRANCH   3   4
TORSDOF 2
ENDMDL
MODEL 5
REMARK VINA RESULT:    -7.600      7.429      9.490
REMARK INTER + INTRA:          -8.626
REMARK INTER:                  -8.432
REMARK INTRA:                  -0.194
REMARK UNBOUND:                -0.137
REMARK SMILES C#CC[NH2+][C@@H]1CCc2ccccc21
REMARK SMILES IDX 1 1 2 2 3 3 4 4 5 7 6 8 13 9 7 10 12 11 8 12 11 13 9 14
REMARK SMILES IDX 10 15
REMARK H PARENT 4 5 4 6
ROOT
ATOM      1  C   UNL     1      55.626 162.056  32.143  1.00  0.00     0.010 C 
ATOM      2  C   UNL     1      54.605 162.132  31.514  1.00  0.00    -0.047 C 
ATOM      3  C   UNL     1      53.380 162.233  30.734  1.00  0.00     0.352 C 
ENDROOT
BRANCH   3   4
ATOM      4  N   UNL     1      52.190 161.895  31.564  1.00  0.00    -0.330 N 
ATOM      5  H   UNL     1      52.438 162.087  32.539  1.00  0.00     0.347 HD
ATOM      6  H   UNL     1      51.457 162.574  31.330  1.00  0.00     0.347 HD
BRANCH   4   7
ATOM      7  C   UNL     1      51.570 160.542  31.521  1.00  0.00     0.214 C 
ATOM      8  C   UNL     1      51.796 159.793  30.195  1.00  0.00     0.075 C 
ATOM      9  C   UNL     1      50.085 160.450  31.687  1.00  0.00     0.012 A 
ATOM     10  C   UNL     1      50.689 158.729  30.130  1.00  0.00     0.042 C 
ATOM     11  C   UNL     1      49.242 161.149  32.538  1.00  0.00     0.010 A 
ATOM     12  C   UNL     1      49.587 159.414  30.880  1.00  0.00    -0.039 A 
ATOM     13  C   UNL     1      47.883 160.827  32.538  1.00  0.00     0.001 A 
ATOM     14  C   UNL     1      48.244 159.081  30.886  1.00  0.00     0.004 A 
ATOM     15  C   UNL     1      47.387 159.805  31.716  1.00  0.00     0.000 A 
ENDBRANCH   4   7
ENDBRANCH   3   4
TORSDOF 2
ENDMDL
MODEL 6
REMARK VINA RESULT:    -7.530      2.237      5.591
REMARK INTER + INTRA:          -8.548
REMARK INTER:                  -8.265
REMARK INTRA:                  -0.283
REMARK UNBOUND:                -0.137
REMARK SMILES C#CC[NH2+][C@@H]1CCc2ccccc21
REMARK SMILES IDX 1 1 2 2 3 3 4 4 5 7 6 8 13 9 7 10 12 11 8 12 11 13 9 14
REMARK SMILES IDX 10 15
REMARK H PARENT 4 5 4 6
ROOT
ATOM      1  C   UNL     1      51.590 158.798  29.744  1.00  0.00     0.010 C 
ATOM      2  C   UNL     1      51.255 157.643  29.756  1.00  0.00    -0.047 C 
ATOM      3  C   UNL     1      50.830 156.251  29.782  1.00  0.00     0.352 C 
ENDROOT
BRANCH   3   4
ATOM      4  N   UNL     1      51.888 155.360  29.232  1.00  0.00    -0.330 N 
ATOM      5  H   UNL     1      52.738 155.925  29.136  1.00  0.00     0.347 HD
ATOM      6  H   UNL     1      52.103 154.665  29.956  1.00  0.00     0.347 HD
BRANCH   4   7
ATOM      7  C   UNL     1      51.697 154.623  27.952  1.00  0.00     0.214 C 
ATOM      8  C   UNL     1      51.886 153.100  28.074  1.00  0.00     0.075 C 
ATOM      9  C   UNL     1      52.602 154.964  26.810  1.00  0.00     0.012 A 
ATOM     10  C   UNL     1      52.185 152.608  26.648  1.00  0.00     0.042 C 
ATOM     11  C   UNL     1      53.073 156.199  26.388  1.00  0.00     0.010 A 
ATOM     12  C   UNL     1      52.884 153.803  26.073  1.00  0.00    -0.039 A 
ATOM     13  C   UNL     1      53.869 156.250  25.241  1.00  0.00     0.001 A 
ATOM     14  C   UNL     1      53.660 153.849  24.928  1.00  0.00     0.004 A 
ATOM     15  C   UNL     1      54.164 155.084  24.519  1.00  0.00     0.000 A 
ENDBRANCH   4   7
ENDBRANCH   3   4
TORSDOF 2
ENDMDL
MODEL 7
REMARK VINA RESULT:    -7.438      5.128      8.547
REMARK INTER + INTRA:          -8.444
REMARK INTER:                  -8.322
REMARK INTRA:                  -0.122
REMARK UNBOUND:                -0.137
REMARK SMILES C#CC[NH2+][C@@H]1CCc2ccccc21
REMARK SMILES IDX 1 1 2 2 3 3 4 4 5 7 6 8 13 9 7 10 12 11 8 12 11 13 9 14
REMARK SMILES IDX 10 15
REMARK H PARENT 4 5 4 6
ROOT
ATOM      1  C   UNL     1      48.511 161.321  33.332  1.00  0.00     0.010 C 
ATOM      2  C   UNL     1      47.947 160.612  32.543  1.00  0.00    -0.047 C 
ATOM      3  C   UNL     1      47.243 159.754  31.600  1.00  0.00     0.352 C 
ENDROOT
BRANCH   3   4
ATOM      4  N   UNL     1      48.161 159.271  30.531  1.00  0.00    -0.330 N 
ATOM      5  H   UNL     1      47.823 158.348  30.239  1.00  0.00     0.347 HD
ATOM      6  H   UNL     1      48.024 159.881  29.718  1.00  0.00     0.347 HD
BRANCH   4   7
ATOM      7  C   UNL     1      49.628 159.157  30.757  1.00  0.00     0.214 C 
ATOM      8  C   UNL     1      50.431 160.380  30.280  1.00  0.00     0.075 C 
ATOM      9  C   UNL     1      50.350 158.026  30.094  1.00  0.00     0.012 A 
ATOM     10  C   UNL     1      51.872 159.878  30.093  1.00  0.00     0.042 C 
ATOM     11  C   UNL     1      49.960 156.706  29.917  1.00  0.00     0.010 A 
ATOM     12  C   UNL     1      51.632 158.450  29.709  1.00  0.00    -0.039 A 
ATOM     13  C   UNL     1      50.857 155.825  29.307  1.00  0.00     0.001 A 
ATOM     14  C   UNL     1      52.529 157.578  29.117  1.00  0.00     0.004 A 
ATOM     15  C   UNL     1      52.129 156.258  28.906  1.00  0.00     0.000 A 
ENDBRANCH   4   7
ENDBRANCH   3   4
TORSDOF 2
ENDMDL
MODEL 8
REMARK VINA RESULT:    -7.349      1.220      2.969
REMARK INTER + INTRA:          -8.345
REMARK INTER:                  -7.984
REMARK INTRA:                  -0.360
REMARK UNBOUND:                -0.137
REMARK SMILES C#CC[NH2+][C@@H]1CCc2ccccc21
REMARK SMILES IDX 1 1 2 2 3 3 4 4 5 7 6 8 13 9 7 10 12 11 8 12 11 13 9 14
REMARK SMILES IDX 10 15
REMARK H PARENT 4 5 4 6
ROOT
ATOM      1  C   UNL     1      54.166 150.099  24.659  1.00  0.00     0.010 C 
ATOM      2  C   UNL     1      53.333 150.387  25.476  1.00  0.00    -0.047 C 
ATOM      3  C   UNL     1      52.324 150.713  26.474  1.00  0.00     0.352 C 
ENDROOT
BRANCH   3   4
ATOM      4  N   UNL     1      51.802 152.093  26.274  1.00  0.00    -0.330 N 
ATOM      5  H   UNL     1      51.723 152.241  25.263  1.00  0.00     0.347 HD
ATOM      6  H   UNL     1      50.839 152.105  26.627  1.00  0.00     0.347 HD
BRANCH   4   7
ATOM      7  C   UNL     1      52.499 153.280  26.844  1.00  0.00     0.214 C 
ATOM      8  C   UNL     1      51.556 154.297  27.510  1.00  0.00     0.075 C 
ATOM      9  C   UNL     1      53.286 154.142  25.907  1.00  0.00     0.012 A 
ATOM     10  C   UNL     1      52.335 155.623  27.536  1.00  0.00     0.042 C 
ATOM     11  C   UNL     1      54.103 153.784  24.845  1.00  0.00     0.010 A 
ATOM     12  C   UNL     1      53.180 155.484  26.306  1.00  0.00    -0.039 A 
ATOM     13  C   UNL     1      54.780 154.794  24.158  1.00  0.00     0.001 A 
ATOM     14  C   UNL     1      53.859 156.488  25.637  1.00  0.00     0.004 A 
ATOM     15  C   UNL     1      54.655 156.136  24.548  1.00  0.00     0.000 A 
ENDBRANCH   4   7
ENDBRANCH   3   4
TORSDOF 2
ENDMDL
MODEL 9
REMARK VINA RESULT:    -7.232      5.144      7.711
REMARK INTER + INTRA:          -8.214
REMARK INTER:                  -7.988
REMARK INTRA:                  -0.227
REMARK UNBOUND:                -0.137
REMARK SMILES C#CC[NH2+][C@@H]1CCc2ccccc21
REMARK SMILES IDX 1 1 2 2 3 3 4 4 5 7 6 8 13 9 7 10 12 11 8 12 11 13 9 14
REMARK SMILES IDX 10 15
REMARK H PARENT 4 5 4 6
ROOT
ATOM      1  C   UNL     1      51.224 155.577  29.649  1.00  0.00     0.010 C 
ATOM      2  C   UNL     1      51.604 156.672  29.330  1.00  0.00    -0.047 C 
ATOM      3  C   UNL     1      52.066 157.990  28.923  1.00  0.00     0.352 C 
ENDROOT
BRANCH   3   4
ATOM      4  N   UNL     1      52.243 158.882  30.103  1.00  0.00    -0.330 N 
ATOM      5  H   UNL     1      52.154 158.297  30.939  1.00  0.00     0.347 HD
ATOM      6  H   UNL     1      53.218 159.201  30.096  1.00  0.00     0.347 HD
BRANCH   4   7
ATOM      7  C   UNL     1      51.385 160.083  30.306  1.00  0.00     0.214 C 
ATOM      8  C   UNL     1      51.940 161.078  31.341  1.00  0.00     0.075 C 
ATOM      9  C   UNL     1      49.987 159.865  30.794  1.00  0.00     0.012 A 
ATOM     10  C   UNL     1      50.731 161.911  31.798  1.00  0.00     0.042 C 
ATOM     11  C   UNL     1      49.069 158.883  30.449  1.00  0.00     0.010 A 
ATOM     12  C   UNL     1      49.623 160.913  31.654  1.00  0.00    -0.039 A 
ATOM     13  C   UNL     1      47.792 158.940  31.013  1.00  0.00     0.001 A 
ATOM     14  C   UNL     1      48.355 160.982  32.206  1.00  0.00     0.004 A 
ATOM     15  C   UNL     1      47.440 159.979  31.888  1.00  0.00     0.000 A 
ENDBRANCH   4   7
ENDBRANCH   3   4
TORSDOF 2
ENDMDL
