MODEL 1
REMARK VINA RESULT:    -6.707      0.000      0.000
REMARK INTER + INTRA:          -9.019
REMARK INTER:                  -8.667
REMARK INTRA:                  -0.352
REMARK UNBOUND:                -0.352
REMARK SMILES CC[C@](C)(O)C#Cc1cc2c(ccn2-c2cc(OC)nc(N)n2)cn1
REMARK SMILES IDX 7 1 8 2 9 3 10 4 11 5 12 6 13 7 14 8 24 9 25 10 6 11 3 12
REMARK SMILES IDX 4 13 2 14 1 15 5 16 15 18 16 19 23 20 17 21 21 22 20 23
REMARK SMILES IDX 18 24 19 25 22 26
REMARK H PARENT 5 17 22 27 22 28
ROOT
ATOM      1  C   UNL     1      51.192 157.847  29.905  1.00  0.00    -0.044 C 
ATOM      2  C   UNL     1      51.374 156.477  29.541  1.00  0.00     0.115 A 
ATOM      3  C   UNL     1      51.967 156.140  28.332  1.00  0.00     0.065 A 
ATOM      4  C   UNL     1      52.112 154.768  28.070  1.00  0.00     0.059 A 
ATOM      5  C   UNL     1      51.589 153.832  28.977  1.00  0.00     0.018 A 
ATOM      6  C   UNL     1      51.748 152.547  28.405  1.00  0.00     0.030 A 
ATOM      7  C   UNL     1      52.347 152.714  27.183  1.00  0.00     0.094 A 
ATOM      8  N   UNL     1      52.661 154.051  27.001  1.00  0.00    -0.301 N 
ATOM      9  C   UNL     1      51.012 154.278  30.175  1.00  0.00     0.122 A 
ATOM     10  N   UNL     1      50.920 155.597  30.453  1.00  0.00    -0.247 NA
ENDROOT
BRANCH   1  11
ATOM     11  C   UNL     1      51.036 158.997  30.214  1.00  0.00    -0.062 C 
ATOM     12  C   UNL     1      50.831 160.404  30.599  1.00  0.00     0.122 C 
ATOM     13  C   UNL     1      52.153 161.169  30.547  1.00  0.00     0.057 C 
BRANCH  12  14
ATOM     14  C   UNL     1      50.137 160.517  31.970  1.00  0.00     0.045 C 
ATOM     15  C   UNL     1      48.841 159.731  32.112  1.00  0.00     0.008 C 
ENDBRANCH  12  14
BRANCH  12  16
ATOM     16  O   UNL     1      49.967 161.007  29.631  1.00  0.00    -0.378 OA
ATOM     17  H   UNL     1      50.299 160.743  28.755  1.00  0.00     0.212 HD
ENDBRANCH  12  16
ENDBRANCH   1  11
BRANCH   8  18
ATOM     18  C   UNL     1      53.422 154.515  25.878  1.00  0.00     0.146 A 
ATOM     19  C   UNL     1      53.850 155.817  25.792  1.00  0.00     0.116 A 
ATOM     20  N   UNL     1      53.740 153.595  24.936  1.00  0.00    -0.195 NA
ATOM     21  C   UNL     1      54.576 156.127  24.667  1.00  0.00     0.220 A 
ATOM     22  C   UNL     1      54.459 154.003  23.890  1.00  0.00     0.225 A 
ATOM     23  N   UNL     1      54.876 155.251  23.697  1.00  0.00    -0.177 NA
BRANCH  21  24
ATOM     24  O   UNL     1      55.009 157.437  24.573  1.00  0.00    -0.481 OA
ATOM     25  C   UNL     1      54.999 157.938  23.240  1.00  0.00     0.280 C 
ENDBRANCH  21  24
BRANCH  22  26
ATOM     26  N   UNL     1      54.755 153.072  22.918  1.00  0.00    -0.368 N 
ATOM     27  H   UNL     1      54.570 153.454  22.002  1.00  0.00     0.159 HD
ATOM     28  H   UNL     1      55.668 152.674  23.082  1.00  0.00     0.159 HD
ENDBRANCH  22  26
ENDBRANCH   8  18
TORSDOF 6
ENDMDL
MODEL 2
REMARK VINA RESULT:    -6.364      4.211      8.160
REMARK INTER + INTRA:          -8.577
REMARK INTER:                  -7.949
REMARK INTRA:                  -0.628
REMARK UNBOUND:                -0.352
REMARK SMILES CC[C@](C)(O)C#Cc1cc2c(ccn2-c2cc(OC)nc(N)n2)cn1
REMARK SMILES IDX 7 1 8 2 9 3 10 4 11 5 12 6 13 7 14 8 24 9 25 10 6 11 3 12
REMARK SMILES IDX 4 13 2 14 1 15 5 16 15 18 16 19 23 20 17 21 21 22 20 23
REMARK SMILES IDX 18 24 19 25 22 26
REMARK H PARENT 5 17 22 27 22 28
ROOT
ATOM      1  C   UNL     1      51.383 156.934  29.117  1.00  0.00    -0.044 C 
ATOM      2  C   UNL     1      51.042 158.167  29.752  1.00  0.00     0.115 A 
ATOM      3  C   UNL     1      52.034 159.016  30.224  1.00  0.00     0.065 A 
ATOM      4  C   UNL     1      51.601 160.210  30.822  1.00  0.00     0.059 A 
ATOM      5  C   UNL     1      50.225 160.441  30.987  1.00  0.00     0.018 A 
ATOM      6  C   UNL     1      50.077 161.635  31.732  1.00  0.00     0.030 A 
ATOM      7  C   UNL     1      51.336 162.102  32.011  1.00  0.00     0.094 A 
ATOM      8  N   UNL     1      52.276 161.298  31.386  1.00  0.00    -0.301 N 
ATOM      9  C   UNL     1      49.303 159.520  30.468  1.00  0.00     0.122 A 
ATOM     10  N   UNL     1      49.719 158.396  29.844  1.00  0.00    -0.247 NA
ENDROOT
BRANCH   1  11
ATOM     11  C   UNL     1      51.665 155.895  28.583  1.00  0.00    -0.062 C 
ATOM     12  C   UNL     1      52.013 154.629  27.916  1.00  0.00     0.122 C 
ATOM     13  C   UNL     1      52.407 153.573  28.948  1.00  0.00     0.057 C 
BRANCH  12  14
ATOM     14  C   UNL     1      53.097 154.837  26.841  1.00  0.00     0.045 C 
ATOM     15  C   UNL     1      53.027 156.161  26.092  1.00  0.00     0.008 C 
ENDBRANCH  12  14
BRANCH  12  16
ATOM     16  O   UNL     1      50.842 154.141  27.254  1.00  0.00    -0.378 OA
ATOM     17  H   UNL     1      50.301 154.919  27.031  1.00  0.00     0.212 HD
ENDBRANCH  12  16
ENDBRANCH   1  11
BRANCH   8  18
ATOM     18  C   UNL     1      53.673 161.618  31.376  1.00  0.00     0.146 A 
ATOM     19  C   UNL     1      54.468 161.387  32.473  1.00  0.00     0.116 A 
ATOM     20  N   UNL     1      54.178 162.110  30.219  1.00  0.00    -0.195 NA
ATOM     21  C   UNL     1      55.790 161.733  32.326  1.00  0.00     0.220 A 
ATOM     22  C   UNL     1      55.479 162.401  30.186  1.00  0.00     0.225 A 
ATOM     23  N   UNL     1      56.315 162.256  31.209  1.00  0.00    -0.177 NA
BRANCH  21  24
ATOM     24  O   UNL     1      56.596 161.504  33.427  1.00  0.00    -0.481 OA
ATOM     25  C   UNL     1      57.510 162.566  33.685  1.00  0.00     0.280 C 
ENDBRANCH  21  24
BRANCH  22  26
ATOM     26  N   UNL     1      55.983 162.929  29.017  1.00  0.00    -0.368 N 
ATOM     27  H   UNL     1      56.111 162.199  28.331  1.00  0.00     0.159 HD
ATOM     28  H   UNL     1      55.447 163.739  28.740  1.00  0.00     0.159 HD
ENDBRANCH  22  26
ENDBRANCH   8  18
TORSDOF 6
ENDMDL
MODEL 3
REMARK VINA RESULT:    -6.363     13.299     15.630
REMARK INTER + INTRA:          -8.576
REMARK INTER:                  -8.176
REMARK INTRA:                  -0.400
REMARK UNBOUND:                -0.352
REMARK SMILES CC[C@](C)(O)C#Cc1cc2c(ccn2-c2cc(OC)nc(N)n2)cn1
REMARK SMILES IDX 7 1 8 2 9 3 10 4 11 5 12 6 13 7 14 8 24 9 25 10 6 11 3 12
REMARK SMILES IDX 4 13 2 14 1 15 5 16 15 18 16 19 23 20 17 21 21 22 20 23
REMARK SMILES IDX 18 24 19 25 22 26
REMARK H PARENT 5 17 22 27 22 28
ROOT
ATOM      1  C   UNL     1      59.662 162.440  38.312  1.00  0.00    -0.044 C 
ATOM      2  C   UNL     1      59.388 161.332  39.171  1.00  0.00     0.115 A 
ATOM      3  C   UNL     1      58.210 161.282  39.905  1.00  0.00     0.065 A 
ATOM      4  C   UNL     1      58.026 160.148  40.712  1.00  0.00     0.059 A 
ATOM      5  C   UNL     1      59.049 159.189  40.801  1.00  0.00     0.018 A 
ATOM      6  C   UNL     1      58.661 158.239  41.776  1.00  0.00     0.030 A 
ATOM      7  C   UNL     1      57.438 158.625  42.261  1.00  0.00     0.094 A 
ATOM      8  N   UNL     1      56.992 159.734  41.559  1.00  0.00    -0.301 N 
ATOM      9  C   UNL     1      60.200 159.331  40.012  1.00  0.00     0.122 A 
ATOM     10  N   UNL     1      60.355 160.395  39.194  1.00  0.00    -0.247 NA
ENDROOT
BRANCH   1  11
ATOM     11  C   UNL     1      59.898 163.370  37.589  1.00  0.00    -0.062 C 
ATOM     12  C   UNL     1      60.184 164.502  36.691  1.00  0.00     0.122 C 
ATOM     13  C   UNL     1      60.071 165.825  37.447  1.00  0.00     0.057 C 
BRANCH  12  14
ATOM     14  C   UNL     1      59.295 164.462  35.434  1.00  0.00     0.045 C 
ATOM     15  C   UNL     1      58.751 163.089  35.062  1.00  0.00     0.008 C 
ENDBRANCH  12  14
BRANCH  12  16
ATOM     16  O   UNL     1      61.543 164.390  36.257  1.00  0.00    -0.378 OA
ATOM     17  H   UNL     1      61.801 163.460  36.379  1.00  0.00     0.212 HD
ENDBRANCH  12  16
ENDBRANCH   1  11
BRANCH   8  18
ATOM     18  C   UNL     1      55.681 160.282  41.744  1.00  0.00     0.146 A 
ATOM     19  C   UNL     1      55.466 161.639  41.747  1.00  0.00     0.116 A 
ATOM     20  N   UNL     1      54.662 159.398  41.864  1.00  0.00    -0.195 NA
ATOM     21  C   UNL     1      54.160 162.030  41.928  1.00  0.00     0.220 A 
ATOM     22  C   UNL     1      53.432 159.888  42.023  1.00  0.00     0.225 A 
ATOM     23  N   UNL     1      53.134 161.182  42.087  1.00  0.00    -0.177 NA
BRANCH  21  24
ATOM     24  O   UNL     1      53.937 163.395  41.933  1.00  0.00    -0.481 OA
ATOM     25  C   UNL     1      53.610 163.916  40.648  1.00  0.00     0.280 C 
ENDBRANCH  21  24
BRANCH  22  26
ATOM     26  N   UNL     1      52.402 158.985  42.175  1.00  0.00    -0.368 N 
ATOM     27  H   UNL     1      51.654 159.397  42.714  1.00  0.00     0.159 HD
ATOM     28  H   UNL     1      52.162 158.575  41.283  1.00  0.00     0.159 HD
ENDBRANCH  22  26
ENDBRANCH   8  18
TORSDOF 6
ENDMDL
MODEL 4
REMARK VINA RESULT:    -6.181     14.893     15.606
REMARK INTER + INTRA:          -8.339
REMARK INTER:                  -7.984
REMARK INTRA:                  -0.355
REMARK UNBOUND:                -0.352
REMARK SMILES CC[C@](C)(O)C#Cc1cc2c(ccn2-c2cc(OC)nc(N)n2)cn1
REMARK SMILES IDX 7 1 8 2 9 3 10 4 11 5 12 6 13 7 14 8 24 9 25 10 6 11 3 12
REMARK SMILES IDX 4 13 2 14 1 15 5 16 15 18 16 19 23 20 17 21 21 22 20 23
REMARK SMILES IDX 18 24 19 25 22 26
REMARK H PARENT 5 17 22 27 22 28
ROOT
ATOM      1  C   UNL     1      50.659 163.599  41.491  1.00  0.00    -0.044 C 
ATOM      2  C   UNL     1      51.363 162.400  41.821  1.00  0.00     0.115 A 
ATOM      3  C   UNL     1      52.733 162.306  41.612  1.00  0.00     0.065 A 
ATOM      4  C   UNL     1      53.337 161.092  41.978  1.00  0.00     0.059 A 
ATOM      5  C   UNL     1      52.537 160.034  42.442  1.00  0.00     0.018 A 
ATOM      6  C   UNL     1      53.373 158.903  42.602  1.00  0.00     0.030 A 
ATOM      7  C   UNL     1      54.641 159.276  42.235  1.00  0.00     0.094 A 
ATOM      8  N   UNL     1      54.657 160.631  41.941  1.00  0.00    -0.301 N 
ATOM      9  C   UNL     1      51.161 160.236  42.623  1.00  0.00     0.122 A 
ATOM     10  N   UNL     1      50.587 161.421  42.321  1.00  0.00    -0.247 NA
ENDROOT
BRANCH   1  11
ATOM     11  C   UNL     1      50.063 164.605  41.214  1.00  0.00    -0.062 C 
ATOM     12  C   UNL     1      49.323 165.829  40.865  1.00  0.00     0.122 C 
ATOM     13  C   UNL     1      49.515 166.894  41.943  1.00  0.00     0.057 C 
BRANCH  12  14
ATOM     14  C   UNL     1      47.837 165.530  40.588  1.00  0.00     0.045 C 
ATOM     15  C   UNL     1      47.188 164.521  41.527  1.00  0.00     0.008 C 
ENDBRANCH  12  14
BRANCH  12  16
ATOM     16  O   UNL     1      49.885 166.357  39.659  1.00  0.00    -0.378 OA
ATOM     17  H   UNL     1      49.183 166.327  38.986  1.00  0.00     0.212 HD
ENDBRANCH  12  16
ENDBRANCH   1  11
BRANCH   8  18
ATOM     18  C   UNL     1      55.871 161.341  41.662  1.00  0.00     0.146 A 
ATOM     19  C   UNL     1      57.010 160.682  41.268  1.00  0.00     0.116 A 
ATOM     20  N   UNL     1      55.823 162.691  41.758  1.00  0.00    -0.195 NA
ATOM     21  C   UNL     1      58.101 161.484  41.027  1.00  0.00     0.220 A 
ATOM     22  C   UNL     1      56.939 163.371  41.490  1.00  0.00     0.225 A 
ATOM     23  N   UNL     1      58.099 162.819  41.149  1.00  0.00    -0.177 NA
BRANCH  21  24
ATOM     24  O   UNL     1      59.252 160.827  40.631  1.00  0.00    -0.481 OA
ATOM     25  C   UNL     1      58.996 159.686  39.818  1.00  0.00     0.280 C 
ENDBRANCH  21  24
BRANCH  22  26
ATOM     26  N   UNL     1      56.894 164.742  41.618  1.00  0.00    -0.368 N 
ATOM     27  H   UNL     1      56.162 165.009  42.261  1.00  0.00     0.159 HD
ATOM     28  H   UNL     1      57.821 165.107  41.790  1.00  0.00     0.159 HD
ENDBRANCH  22  26
ENDBRANCH   8  18
TORSDOF 6
ENDMDL
MODEL 5
REMARK VINA RESULT:    -6.124     14.137     15.901
REMARK INTER + INTRA:          -8.266
REMARK INTER:                  -7.844
REMARK INTRA:                  -0.422
REMARK UNBOUND:                -0.352
REMARK SMILES CC[C@](C)(O)C#Cc1cc2c(ccn2-c2cc(OC)nc(N)n2)cn1
REMARK SMILES IDX 7 1 8 2 9 3 10 4 11 5 12 6 13 7 14 8 24 9 25 10 6 11 3 12
REMARK SMILES IDX 4 13 2 14 1 15 5 16 15 18 16 19 23 20 17 21 21 22 20 23
REMARK SMILES IDX 18 24 19 25 22 26
REMARK H PARENT 5 17 22 27 22 28
ROOT
ATOM      1  C   UNL     1      59.996 163.005  37.750  1.00  0.00    -0.044 C 
ATOM      2  C   UNL     1      59.901 161.901  38.651  1.00  0.00     0.115 A 
ATOM      3  C   UNL     1      58.774 161.731  39.444  1.00  0.00     0.065 A 
ATOM      4  C   UNL     1      58.769 160.609  40.288  1.00  0.00     0.059 A 
ATOM      5  C   UNL     1      59.906 159.786  40.351  1.00  0.00     0.018 A 
ATOM      6  C   UNL     1      59.684 158.827  41.368  1.00  0.00     0.030 A 
ATOM      7  C   UNL     1      58.447 159.077  41.905  1.00  0.00     0.094 A 
ATOM      8  N   UNL     1      57.835 160.101  41.197  1.00  0.00    -0.301 N 
ATOM      9  C   UNL     1      60.992 160.042  39.501  1.00  0.00     0.122 A 
ATOM     10  N   UNL     1      60.976 161.090  38.649  1.00  0.00    -0.247 NA
ENDROOT
BRANCH   1  11
ATOM     11  C   UNL     1      60.081 163.934  36.992  1.00  0.00    -0.062 C 
ATOM     12  C   UNL     1      60.200 165.075  36.069  1.00  0.00     0.122 C 
ATOM     13  C   UNL     1      59.177 164.956  34.940  1.00  0.00     0.057 C 
BRANCH  12  14
ATOM     14  C   UNL     1      61.641 165.230  35.547  1.00  0.00     0.045 C 
ATOM     15  C   UNL     1      61.785 166.020  34.253  1.00  0.00     0.008 C 
ENDBRANCH  12  14
BRANCH  12  16
ATOM     16  O   UNL     1      59.877 166.266  36.794  1.00  0.00    -0.378 OA
ATOM     17  H   UNL     1      58.935 166.205  37.030  1.00  0.00     0.212 HD
ENDBRANCH  12  16
ENDBRANCH   1  11
BRANCH   8  18
ATOM     18  C   UNL     1      56.476 160.490  41.434  1.00  0.00     0.146 A 
ATOM     19  C   UNL     1      55.505 159.561  41.718  1.00  0.00     0.116 A 
ATOM     20  N   UNL     1      56.210 161.818  41.413  1.00  0.00    -0.195 NA
ATOM     21  C   UNL     1      54.245 160.071  41.930  1.00  0.00     0.220 A 
ATOM     22  C   UNL     1      54.954 162.202  41.643  1.00  0.00     0.225 A 
ATOM     23  N   UNL     1      53.940 161.375  41.880  1.00  0.00    -0.177 NA
BRANCH  21  24
ATOM     24  O   UNL     1      53.262 159.140  42.216  1.00  0.00    -0.481 OA
ATOM     25  C   UNL     1      52.011 159.732  42.554  1.00  0.00     0.280 C 
ENDBRANCH  21  24
BRANCH  22  26
ATOM     26  N   UNL     1      54.681 163.551  41.591  1.00  0.00    -0.368 N 
ATOM     27  H   UNL     1      54.944 163.994  42.460  1.00  0.00     0.159 HD
ATOM     28  H   UNL     1      55.046 163.949  40.737  1.00  0.00     0.159 HD
ENDBRANCH  22  26
ENDBRANCH   8  18
TORSDOF 6
ENDMDL
MODEL 6
REMARK VINA RESULT:    -5.898     14.413     15.897
REMARK INTER + INTRA:          -7.974
REMARK INTER:                  -7.455
REMARK INTRA:                  -0.519
REMARK UNBOUND:                -0.352
REMARK SMILES CC[C@](C)(O)C#Cc1cc2c(ccn2-c2cc(OC)nc(N)n2)cn1
REMARK SMILES IDX 7 1 8 2 9 3 10 4 11 5 12 6 13 7 14 8 24 9 25 10 6 11 3 12
REMARK SMILES IDX 4 13 2 14 1 15 5 16 15 18 16 19 23 20 17 21 21 22 20 23
REMARK SMILES IDX 18 24 19 25 22 26
REMARK H PARENT 5 17 22 27 22 28
ROOT
ATOM      1  C   UNL     1      60.260 163.739  37.079  1.00  0.00    -0.044 C 
ATOM      2  C   UNL     1      60.283 162.647  37.999  1.00  0.00     0.115 A 
ATOM      3  C   UNL     1      59.253 162.474  38.915  1.00  0.00     0.065 A 
ATOM      4  C   UNL     1      59.359 161.365  39.770  1.00  0.00     0.059 A 
ATOM      5  C   UNL     1      60.508 160.559  39.716  1.00  0.00     0.018 A 
ATOM      6  C   UNL     1      60.416 159.612  40.765  1.00  0.00     0.030 A 
ATOM      7  C   UNL     1      59.243 159.853  41.432  1.00  0.00     0.094 A 
ATOM      8  N   UNL     1      58.540 160.857  40.784  1.00  0.00    -0.301 N 
ATOM      9  C   UNL     1      61.490 160.817  38.748  1.00  0.00     0.122 A 
ATOM     10  N   UNL     1      61.363 161.852  37.889  1.00  0.00    -0.247 NA
ENDROOT
BRANCH   1  11
ATOM     11  C   UNL     1      60.245 164.658  36.304  1.00  0.00    -0.062 C 
ATOM     12  C   UNL     1      60.219 165.791  35.364  1.00  0.00     0.122 C 
ATOM     13  C   UNL     1      61.362 165.676  34.357  1.00  0.00     0.057 C 
BRANCH  12  14
ATOM     14  C   UNL     1      60.221 167.140  36.108  1.00  0.00     0.045 C 
ATOM     15  C   UNL     1      60.681 168.338  35.287  1.00  0.00     0.008 C 
ENDBRANCH  12  14
BRANCH  12  16
ATOM     16  O   UNL     1      59.001 165.718  34.615  1.00  0.00    -0.378 OA
ATOM     17  H   UNL     1      59.235 165.870  33.683  1.00  0.00     0.212 HD
ENDBRANCH  12  16
ENDBRANCH   1  11
BRANCH   8  18
ATOM     18  C   UNL     1      57.210 161.231  41.165  1.00  0.00     0.146 A 
ATOM     19  C   UNL     1      56.879 162.541  41.415  1.00  0.00     0.116 A 
ATOM     20  N   UNL     1      56.289 160.239  41.216  1.00  0.00    -0.195 NA
ATOM     21  C   UNL     1      55.567 162.762  41.764  1.00  0.00     0.220 A 
ATOM     22  C   UNL     1      55.042 160.569  41.556  1.00  0.00     0.225 A 
ATOM     23  N   UNL     1      54.640 161.799  41.861  1.00  0.00    -0.177 NA
BRANCH  21  24
ATOM     24  O   UNL     1      55.228 164.078  42.018  1.00  0.00    -0.481 OA
ATOM     25  C   UNL     1      54.571 164.710  40.922  1.00  0.00     0.280 C 
ENDBRANCH  21  24
BRANCH  22  26
ATOM     26  N   UNL     1      54.115 159.553  41.637  1.00  0.00    -0.368 N 
ATOM     27  H   UNL     1      54.452 158.734  41.152  1.00  0.00     0.159 HD
ATOM     28  H   UNL     1      53.808 159.435  42.592  1.00  0.00     0.159 HD
ENDBRANCH  22  26
ENDBRANCH   8  18
TORSDOF 6
ENDMDL
MODEL 7
REMARK VINA RESULT:    -5.858     13.768     16.341
REMARK INTER + INTRA:          -7.922
REMARK INTER:                  -7.271
REMARK INTRA:                  -0.651
REMARK UNBOUND:                -0.352
REMARK SMILES CC[C@](C)(O)C#Cc1cc2c(ccn2-c2cc(OC)nc(N)n2)cn1
REMARK SMILES IDX 7 1 8 2 9 3 10 4 11 5 12 6 13 7 14 8 24 9 25 10 6 11 3 12
REMARK SMILES IDX 4 13 2 14 1 15 5 16 15 18 16 19 23 20 17 21 21 22 20 23
REMARK SMILES IDX 18 24 19 25 22 26
REMARK H PARENT 5 17 22 27 22 28
ROOT
ATOM      1  C   UNL     1      60.527 166.106  37.060  1.00  0.00    -0.044 C 
ATOM      2  C   UNL     1      59.872 165.701  38.264  1.00  0.00     0.115 A 
ATOM      3  C   UNL     1      59.768 164.355  38.592  1.00  0.00     0.065 A 
ATOM      4  C   UNL     1      59.117 164.058  39.800  1.00  0.00     0.059 A 
ATOM      5  C   UNL     1      58.545 165.097  40.552  1.00  0.00     0.018 A 
ATOM      6  C   UNL     1      57.843 164.509  41.632  1.00  0.00     0.030 A 
ATOM      7  C   UNL     1      57.988 163.150  41.522  1.00  0.00     0.094 A 
ATOM      8  N   UNL     1      58.838 162.859  40.467  1.00  0.00    -0.301 N 
ATOM      9  C   UNL     1      58.712 166.426  40.134  1.00  0.00     0.122 A 
ATOM     10  N   UNL     1      59.385 166.717  38.999  1.00  0.00    -0.247 NA
ENDROOT
BRANCH   1  11
ATOM     11  C   UNL     1      61.076 166.451  36.049  1.00  0.00    -0.062 C 
ATOM     12  C   UNL     1      61.735 166.881  34.804  1.00  0.00     0.122 C 
ATOM     13  C   UNL     1      63.254 166.784  34.944  1.00  0.00     0.057 C 
BRANCH  12  14
ATOM     14  C   UNL     1      61.270 168.287  34.377  1.00  0.00     0.045 C 
ATOM     15  C   UNL     1      59.911 168.344  33.691  1.00  0.00     0.008 C 
ENDBRANCH  12  14
BRANCH  12  16
ATOM     16  O   UNL     1      61.358 165.972  33.766  1.00  0.00    -0.378 OA
ATOM     17  H   UNL     1      61.130 165.130  34.198  1.00  0.00     0.212 HD
ENDBRANCH  12  16
ENDBRANCH   1  11
BRANCH   8  18
ATOM     18  C   UNL     1      59.294 161.528  40.193  1.00  0.00     0.146 A 
ATOM     19  C   UNL     1      60.080 160.843  41.088  1.00  0.00     0.116 A 
ATOM     20  N   UNL     1      58.871 160.965  39.036  1.00  0.00    -0.195 NA
ATOM     21  C   UNL     1      60.441 159.573  40.704  1.00  0.00     0.220 A 
ATOM     22  C   UNL     1      59.273 159.721  38.770  1.00  0.00     0.225 A 
ATOM     23  N   UNL     1      60.071 158.999  39.551  1.00  0.00    -0.177 NA
BRANCH  21  24
ATOM     24  O   UNL     1      61.233 158.878  41.600  1.00  0.00    -0.481 OA
ATOM     25  C   UNL     1      62.501 159.490  41.821  1.00  0.00     0.280 C 
ENDBRANCH  21  24
BRANCH  22  26
ATOM     26  N   UNL     1      58.865 159.162  37.578  1.00  0.00    -0.368 N 
ATOM     27  H   UNL     1      59.224 158.222  37.493  1.00  0.00     0.159 HD
ATOM     28  H   UNL     1      57.872 159.295  37.451  1.00  0.00     0.159 HD
ENDBRANCH  22  26
ENDBRANCH   8  18
TORSDOF 6
ENDMDL
MODEL 8
REMARK VINA RESULT:    -5.790     13.867     16.583
REMARK INTER + INTRA:          -7.835
REMARK INTER:                  -7.228
REMARK INTRA:                  -0.607
REMARK UNBOUND:                -0.352
REMARK SMILES CC[C@](C)(O)C#Cc1cc2c(ccn2-c2cc(OC)nc(N)n2)cn1
REMARK SMILES IDX 7 1 8 2 9 3 10 4 11 5 12 6 13 7 14 8 24 9 25 10 6 11 3 12
REMARK SMILES IDX 4 13 2 14 1 15 5 16 15 18 16 19 23 20 17 21 21 22 20 23
REMARK SMILES IDX 18 24 19 25 22 26
REMARK H PARENT 5 17 22 27 22 28
ROOT
ATOM      1  C   UNL     1      62.615 164.655  36.774  1.00  0.00    -0.044 C 
ATOM      2  C   UNL     1      63.050 163.754  37.794  1.00  0.00     0.115 A 
ATOM      3  C   UNL     1      62.141 162.924  38.437  1.00  0.00     0.065 A 
ATOM      4  C   UNL     1      62.666 162.066  39.417  1.00  0.00     0.059 A 
ATOM      5  C   UNL     1      64.028 162.148  39.749  1.00  0.00     0.018 A 
ATOM      6  C   UNL     1      64.254 161.282  40.847  1.00  0.00     0.030 A 
ATOM      7  C   UNL     1      63.052 160.703  41.165  1.00  0.00     0.094 A 
ATOM      8  N   UNL     1      62.092 161.097  40.247  1.00  0.00    -0.301 N 
ATOM      9  C   UNL     1      64.863 163.018  39.034  1.00  0.00     0.122 A 
ATOM     10  N   UNL     1      64.370 163.806  38.054  1.00  0.00    -0.247 NA
ENDROOT
BRANCH   1  11
ATOM     11  C   UNL     1      62.253 165.415  35.917  1.00  0.00    -0.062 C 
ATOM     12  C   UNL     1      61.796 166.341  34.867  1.00  0.00     0.122 C 
ATOM     13  C   UNL     1      62.746 167.532  34.754  1.00  0.00     0.057 C 
BRANCH  12  14
ATOM     14  C   UNL     1      60.334 166.771  35.093  1.00  0.00     0.045 C 
ATOM     15  C   UNL     1      59.764 167.721  34.048  1.00  0.00     0.008 C 
ENDBRANCH  12  14
BRANCH  12  16
ATOM     16  O   UNL     1      61.849 165.651  33.614  1.00  0.00    -0.378 OA
ATOM     17  H   UNL     1      62.722 165.840  33.226  1.00  0.00     0.212 HD
ENDBRANCH  12  16
ENDBRANCH   1  11
BRANCH   8  18
ATOM     18  C   UNL     1      60.770 160.543  40.235  1.00  0.00     0.146 A 
ATOM     19  C   UNL     1      59.876 160.804  41.245  1.00  0.00     0.116 A 
ATOM     20  N   UNL     1      60.432 159.794  39.158  1.00  0.00    -0.195 NA
ATOM     21  C   UNL     1      58.641 160.216  41.106  1.00  0.00     0.220 A 
ATOM     22  C   UNL     1      59.201 159.281  39.122  1.00  0.00     0.225 A 
ATOM     23  N   UNL     1      58.286 159.440  40.073  1.00  0.00    -0.177 NA
BRANCH  21  24
ATOM     24  O   UNL     1      57.736 160.474  42.120  1.00  0.00    -0.481 OA
ATOM     25  C   UNL     1      56.457 159.888  41.894  1.00  0.00     0.280 C 
ENDBRANCH  21  24
BRANCH  22  26
ATOM     26  N   UNL     1      58.871 158.495  38.039  1.00  0.00    -0.368 N 
ATOM     27  H   UNL     1      59.636 158.470  37.381  1.00  0.00     0.159 HD
ATOM     28  H   UNL     1      58.496 157.611  38.351  1.00  0.00     0.159 HD
ENDBRANCH  22  26
ENDBRANCH   8  18
TORSDOF 6
ENDMDL
MODEL 9
REMARK VINA RESULT:    -5.425     15.282     17.106
REMARK INTER + INTRA:          -7.362
REMARK INTER:                  -6.985
REMARK INTRA:                  -0.377
REMARK UNBOUND:                -0.352
REMARK SMILES CC[C@](C)(O)C#Cc1cc2c(ccn2-c2cc(OC)nc(N)n2)cn1
REMARK SMILES IDX 7 1 8 2 9 3 10 4 11 5 12 6 13 7 14 8 24 9 25 10 6 11 3 12
REMARK SMILES IDX 4 13 2 14 1 15 5 16 15 18 16 19 23 20 17 21 21 22 20 23
REMARK SMILES IDX 18 24 19 25 22 26
REMARK H PARENT 5 17 22 27 22 28
ROOT
ATOM      1  C   UNL     1      55.206 162.891  41.427  1.00  0.00    -0.044 C 
ATOM      2  C   UNL     1      54.263 163.941  41.210  1.00  0.00     0.115 A 
ATOM      3  C   UNL     1      52.899 163.681  41.237  1.00  0.00     0.065 A 
ATOM      4  C   UNL     1      52.050 164.779  41.024  1.00  0.00     0.059 A 
ATOM      5  C   UNL     1      52.606 166.033  40.718  1.00  0.00     0.018 A 
ATOM      6  C   UNL     1      51.539 166.913  40.418  1.00  0.00     0.030 A 
ATOM      7  C   UNL     1      50.374 166.199  40.536  1.00  0.00     0.094 A 
ATOM      8  N   UNL     1      50.659 164.922  40.995  1.00  0.00    -0.301 N 
ATOM      9  C   UNL     1      54.000 166.191  40.722  1.00  0.00     0.122 A 
ATOM     10  N   UNL     1      54.817 165.146  40.979  1.00  0.00    -0.247 NA
ENDROOT
BRANCH   1  11
ATOM     11  C   UNL     1      56.004 162.011  41.608  1.00  0.00    -0.062 C 
ATOM     12  C   UNL     1      56.975 160.924  41.817  1.00  0.00     0.122 C 
ATOM     13  C   UNL     1      58.182 161.431  42.606  1.00  0.00     0.057 C 
BRANCH  12  14
ATOM     14  C   UNL     1      57.376 160.262  40.485  1.00  0.00     0.045 C 
ATOM     15  C   UNL     1      58.424 161.012  39.673  1.00  0.00     0.008 C 
ENDBRANCH  12  14
BRANCH  12  16
ATOM     16  O   UNL     1      56.349 159.920  42.623  1.00  0.00    -0.378 OA
ATOM     17  H   UNL     1      55.569 159.610  42.129  1.00  0.00     0.212 HD
ENDBRANCH  12  16
ENDBRANCH   1  11
BRANCH   8  18
ATOM     18  C   UNL     1      49.632 163.989  41.352  1.00  0.00     0.146 A 
ATOM     19  C   UNL     1      49.922 162.671  41.613  1.00  0.00     0.116 A 
ATOM     20  N   UNL     1      48.375 164.480  41.467  1.00  0.00    -0.195 NA
ATOM     21  C   UNL     1      48.845 161.886  41.950  1.00  0.00     0.220 A 
ATOM     22  C   UNL     1      47.407 163.629  41.812  1.00  0.00     0.225 A 
ATOM     23  N   UNL     1      47.583 162.331  42.037  1.00  0.00    -0.177 NA
BRANCH  21  24
ATOM     24  O   UNL     1      49.129 160.558  42.213  1.00  0.00    -0.481 OA
ATOM     25  C   UNL     1      50.510 160.320  42.473  1.00  0.00     0.280 C 
ENDBRANCH  21  24
BRANCH  22  26
ATOM     26  N   UNL     1      46.124 164.126  41.899  1.00  0.00    -0.368 N 
ATOM     27  H   UNL     1      45.501 163.585  41.318  1.00  0.00     0.159 HD
ATOM     28  H   UNL     1      45.865 164.255  42.866  1.00  0.00     0.159 HD
ENDBRANCH  22  26
ENDBRANCH   8  18
TORSDOF 6
ENDMDL
