MODEL 1
REMARK VINA RESULT:   -10.034      0.000      0.000
REMARK INTER + INTRA:         -14.715
REMARK INTER:                 -14.139
REMARK INTRA:                  -0.576
REMARK UNBOUND:                -0.576
REMARK SMILES C[C@H]([NH2+]Cc1ccc(OCc2cccc(F)c2)cc1)C(N)=O
REMARK SMILES IDX 5 1 6 2 7 3 8 4 18 5 19 6 4 7 3 8 2 11 1 12 20 13 21 14
REMARK SMILES IDX 22 15 9 18 10 19 11 20 12 21 17 22 13 23 15 24 14 25 16 26
REMARK H PARENT 3 9 3 10 21 16 21 17
ROOT
ATOM      1  C   UNL     1      52.415 154.471  27.169  1.00  0.00     0.006 A 
ATOM      2  C   UNL     1      51.737 154.209  28.366  1.00  0.00     0.013 A 
ATOM      3  C   UNL     1      51.503 155.239  29.280  1.00  0.00     0.047 A 
ATOM      4  C   UNL     1      51.943 156.540  29.026  1.00  0.00     0.119 A 
ATOM      5  C   UNL     1      52.623 156.803  27.840  1.00  0.00     0.047 A 
ATOM      6  C   UNL     1      52.862 155.776  26.918  1.00  0.00     0.013 A 
ENDROOT
BRANCH   1   7
ATOM      7  C   UNL     1      52.703 153.363  26.198  1.00  0.00     0.297 C 
BRANCH   7   8
ATOM      8  N   UNL     1      53.990 152.706  26.520  1.00  0.00    -0.333 N 
ATOM      9  H   UNL     1      54.556 153.300  27.139  1.00  0.00     0.347 HD
ATOM     10  H   UNL     1      53.806 151.872  27.110  1.00  0.00     0.347 HD
BRANCH   8  11
ATOM     11  C   UNL     1      54.817 152.212  25.350  1.00  0.00     0.269 C 
ATOM     12  C   UNL     1      54.149 150.979  24.765  1.00  0.00     0.086 C 
BRANCH  11  13
ATOM     13  C   UNL     1      54.930 153.364  24.336  1.00  0.00     0.275 C 
ATOM     14  N   UNL     1      54.551 153.151  23.051  1.00  0.00    -0.365 N 
ATOM     15  O   UNL     1      55.395 154.443  24.704  1.00  0.00    -0.268 OA
ATOM     16  H   UNL     1      54.660 153.918  22.393  1.00  0.00     0.159 HD
ATOM     17  H   UNL     1      54.232 152.271  22.664  1.00  0.00     0.159 HD
ENDBRANCH  11  13
ENDBRANCH   8  11
ENDBRANCH   7   8
ENDBRANCH   1   7
BRANCH   4  18
ATOM     18  O   UNL     1      51.628 157.442  30.001  1.00  0.00    -0.489 OA
BRANCH  18  19
ATOM     19  C   UNL     1      51.358 158.799  29.636  1.00  0.00     0.265 C 
BRANCH  19  20
ATOM     20  C   UNL     1      50.208 159.402  30.410  1.00  0.00    -0.008 A 
ATOM     21  C   UNL     1      49.009 158.695  30.598  1.00  0.00     0.007 A 
ATOM     22  C   UNL     1      50.342 160.667  31.000  1.00  0.00     0.046 A 
ATOM     23  C   UNL     1      47.959 159.250  31.335  1.00  0.00     0.003 A 
ATOM     24  C   UNL     1      49.290 161.211  31.729  1.00  0.00     0.123 A 
ATOM     25  C   UNL     1      48.100 160.516  31.900  1.00  0.00     0.039 A 
ATOM     26  F   UNL     1      49.428 162.427  32.272  1.00  0.00    -0.207 F 
ENDBRANCH  19  20
ENDBRANCH  18  19
ENDBRANCH   4  18
TORSDOF 7
ENDMDL
MODEL 2
REMARK VINA RESULT:    -9.946      0.904      1.345
REMARK INTER + INTRA:         -14.592
REMARK INTER:                 -14.038
REMARK INTRA:                  -0.554
REMARK UNBOUND:                -0.576
REMARK SMILES C[C@H]([NH2+]Cc1ccc(OCc2cccc(F)c2)cc1)C(N)=O
REMARK SMILES IDX 5 1 6 2 7 3 8 4 18 5 19 6 4 7 3 8 2 11 1 12 20 13 21 14
REMARK SMILES IDX 22 15 9 18 10 19 11 20 12 21 17 22 13 23 15 24 14 25 16 26
REMARK H PARENT 3 9 3 10 21 16 21 17
ROOT
ATOM      1  C   UNL     1      52.429 154.447  27.201  1.00  0.00     0.006 A 
ATOM      2  C   UNL     1      51.745 154.194  28.398  1.00  0.00     0.013 A 
ATOM      3  C   UNL     1      51.513 155.230  29.305  1.00  0.00     0.047 A 
ATOM      4  C   UNL     1      51.959 156.528  29.045  1.00  0.00     0.119 A 
ATOM      5  C   UNL     1      52.645 156.781  27.860  1.00  0.00     0.047 A 
ATOM      6  C   UNL     1      52.883 155.748  26.945  1.00  0.00     0.013 A 
ENDROOT
BRANCH   1   7
ATOM      7  C   UNL     1      52.715 153.332  26.237  1.00  0.00     0.297 C 
BRANCH   7   8
ATOM      8  N   UNL     1      54.022 152.705  26.535  1.00  0.00    -0.333 N 
ATOM      9  H   UNL     1      54.592 153.319  27.131  1.00  0.00     0.347 HD
ATOM     10  H   UNL     1      53.871 151.877  27.141  1.00  0.00     0.347 HD
BRANCH   8  11
ATOM     11  C   UNL     1      54.829 152.210  25.351  1.00  0.00     0.269 C 
ATOM     12  C   UNL     1      54.149 150.980  24.776  1.00  0.00     0.086 C 
BRANCH  11  13
ATOM     13  C   UNL     1      54.929 153.363  24.337  1.00  0.00     0.275 C 
ATOM     14  N   UNL     1      54.543 153.148  23.055  1.00  0.00    -0.365 N 
ATOM     15  O   UNL     1      55.391 154.444  24.703  1.00  0.00    -0.268 OA
ATOM     16  H   UNL     1      54.643 153.916  22.396  1.00  0.00     0.159 HD
ATOM     17  H   UNL     1      54.225 152.267  22.670  1.00  0.00     0.159 HD
ENDBRANCH  11  13
ENDBRANCH   8  11
ENDBRANCH   7   8
ENDBRANCH   1   7
BRANCH   4  18
ATOM     18  O   UNL     1      51.646 157.436  30.015  1.00  0.00    -0.489 OA
BRANCH  18  19
ATOM     19  C   UNL     1      51.484 158.812  29.656  1.00  0.00     0.265 C 
BRANCH  19  20
ATOM     20  C   UNL     1      50.512 159.547  30.551  1.00  0.00    -0.008 A 
ATOM     21  C   UNL     1      50.936 160.612  31.362  1.00  0.00     0.007 A 
ATOM     22  C   UNL     1      49.152 159.205  30.545  1.00  0.00     0.046 A 
ATOM     23  C   UNL     1      50.028 161.302  32.169  1.00  0.00     0.003 A 
ATOM     24  C   UNL     1      48.257 159.897  31.355  1.00  0.00     0.123 A 
ATOM     25  C   UNL     1      48.682 160.940  32.168  1.00  0.00     0.039 A 
ATOM     26  F   UNL     1      46.965 159.549  31.350  1.00  0.00    -0.207 F 
ENDBRANCH  19  20
ENDBRANCH  18  19
ENDBRANCH   4  18
TORSDOF 7
ENDMDL
MODEL 3
REMARK VINA RESULT:    -9.858      4.775      9.050
REMARK INTER + INTRA:         -14.468
REMARK INTER:                 -13.854
REMARK INTRA:                  -0.614
REMARK UNBOUND:                -0.576
REMARK SMILES C[C@H]([NH2+]Cc1ccc(OCc2cccc(F)c2)cc1)C(N)=O
REMARK SMILES IDX 5 1 6 2 7 3 8 4 18 5 19 6 4 7 3 8 2 11 1 12 20 13 21 14
REMARK SMILES IDX 22 15 9 18 10 19 11 20 12 21 17 22 13 23 15 24 14 25 16 26
REMARK H PARENT 3 9 3 10 21 16 21 17
ROOT
ATOM      1  C   UNL     1      51.302 157.753  29.683  1.00  0.00     0.006 A 
ATOM      2  C   UNL     1      50.381 156.712  29.864  1.00  0.00     0.013 A 
ATOM      3  C   UNL     1      50.574 155.486  29.225  1.00  0.00     0.047 A 
ATOM      4  C   UNL     1      51.676 155.273  28.394  1.00  0.00     0.119 A 
ATOM      5  C   UNL     1      52.590 156.307  28.206  1.00  0.00     0.047 A 
ATOM      6  C   UNL     1      52.404 157.540  28.843  1.00  0.00     0.013 A 
ENDROOT
BRANCH   1   7
ATOM      7  C   UNL     1      51.083 159.086  30.337  1.00  0.00     0.297 C 
BRANCH   7   8
ATOM      8  N   UNL     1      52.282 159.942  30.194  1.00  0.00    -0.333 N 
ATOM      9  H   UNL     1      53.105 159.486  30.608  1.00  0.00     0.347 HD
ATOM     10  H   UNL     1      52.536 160.004  29.190  1.00  0.00     0.347 HD
BRANCH   8  11
ATOM     11  C   UNL     1      52.163 161.373  30.681  1.00  0.00     0.269 C 
ATOM     12  C   UNL     1      51.300 161.394  31.931  1.00  0.00     0.086 C 
BRANCH  11  13
ATOM     13  C   UNL     1      53.585 161.903  30.931  1.00  0.00     0.275 C 
ATOM     14  N   UNL     1      54.134 161.762  32.164  1.00  0.00    -0.365 N 
ATOM     15  O   UNL     1      54.180 162.476  30.018  1.00  0.00    -0.268 OA
ATOM     16  H   UNL     1      55.065 162.144  32.313  1.00  0.00     0.159 HD
ATOM     17  H   UNL     1      53.675 161.371  32.977  1.00  0.00     0.159 HD
ENDBRANCH  11  13
ENDBRANCH   8  11
ENDBRANCH   7   8
ENDBRANCH   1   7
BRANCH   4  18
ATOM     18  O   UNL     1      51.740 154.022  27.852  1.00  0.00    -0.489 OA
BRANCH  18  19
ATOM     19  C   UNL     1      53.014 153.387  27.711  1.00  0.00     0.265 C 
BRANCH  19  20
ATOM     20  C   UNL     1      53.416 153.178  26.269  1.00  0.00    -0.008 A 
ATOM     21  C   UNL     1      53.683 154.268  25.425  1.00  0.00     0.007 A 
ATOM     22  C   UNL     1      53.579 151.880  25.763  1.00  0.00     0.046 A 
ATOM     23  C   UNL     1      54.078 154.067  24.099  1.00  0.00     0.003 A 
ATOM     24  C   UNL     1      53.969 151.691  24.442  1.00  0.00     0.123 A 
ATOM     25  C   UNL     1      54.218 152.771  23.605  1.00  0.00     0.039 A 
ATOM     26  F   UNL     1      54.105 150.446  23.970  1.00  0.00    -0.207 F 
ENDBRANCH  19  20
ENDBRANCH  18  19
ENDBRANCH   4  18
TORSDOF 7
ENDMDL
MODEL 4
REMARK VINA RESULT:    -9.714      1.554      2.235
REMARK INTER + INTRA:         -14.266
REMARK INTER:                 -13.601
REMARK INTRA:                  -0.664
REMARK UNBOUND:                -0.576
REMARK SMILES C[C@H]([NH2+]Cc1ccc(OCc2cccc(F)c2)cc1)C(N)=O
REMARK SMILES IDX 5 1 6 2 7 3 8 4 18 5 19 6 4 7 3 8 2 11 1 12 20 13 21 14
REMARK SMILES IDX 22 15 9 18 10 19 11 20 12 21 17 22 13 23 15 24 14 25 16 26
REMARK H PARENT 3 9 3 10 21 16 21 17
ROOT
ATOM      1  C   UNL     1      51.918 154.957  27.842  1.00  0.00     0.006 A 
ATOM      2  C   UNL     1      52.687 156.079  27.507  1.00  0.00     0.013 A 
ATOM      3  C   UNL     1      52.605 157.241  28.279  1.00  0.00     0.047 A 
ATOM      4  C   UNL     1      51.756 157.310  29.386  1.00  0.00     0.119 A 
ATOM      5  C   UNL     1      50.986 156.199  29.717  1.00  0.00     0.047 A 
ATOM      6  C   UNL     1      51.062 155.031  28.949  1.00  0.00     0.013 A 
ENDROOT
BRANCH   1   7
ATOM      7  C   UNL     1      51.973 153.717  26.997  1.00  0.00     0.297 C 
BRANCH   7   8
ATOM      8  N   UNL     1      53.372 153.383  26.648  1.00  0.00    -0.333 N 
ATOM      9  H   UNL     1      54.010 154.130  26.950  1.00  0.00     0.347 HD
ATOM     10  H   UNL     1      53.681 152.575  27.220  1.00  0.00     0.347 HD
BRANCH   8  11
ATOM     11  C   UNL     1      53.644 152.999  25.207  1.00  0.00     0.269 C 
ATOM     12  C   UNL     1      53.738 154.264  24.372  1.00  0.00     0.086 C 
BRANCH  11  13
ATOM     13  C   UNL     1      54.941 152.171  25.180  1.00  0.00     0.275 C 
ATOM     14  N   UNL     1      56.113 152.770  25.507  1.00  0.00    -0.365 N 
ATOM     15  O   UNL     1      54.892 150.992  24.827  1.00  0.00    -0.268 OA
ATOM     16  H   UNL     1      56.961 152.211  25.456  1.00  0.00     0.159 HD
ATOM     17  H   UNL     1      56.236 153.750  25.733  1.00  0.00     0.159 HD
ENDBRANCH  11  13
ENDBRANCH   8  11
ENDBRANCH   7   8
ENDBRANCH   1   7
BRANCH   4  18
ATOM     18  O   UNL     1      51.794 158.502  30.051  1.00  0.00    -0.489 OA
BRANCH  18  19
ATOM     19  C   UNL     1      50.891 159.544  29.668  1.00  0.00     0.265 C 
BRANCH  19  20
ATOM     20  C   UNL     1      50.017 160.018  30.806  1.00  0.00    -0.008 A 
ATOM     21  C   UNL     1      50.529 160.846  31.818  1.00  0.00     0.007 A 
ATOM     22  C   UNL     1      48.657 159.677  30.839  1.00  0.00     0.046 A 
ATOM     23  C   UNL     1      49.708 161.300  32.854  1.00  0.00     0.003 A 
ATOM     24  C   UNL     1      47.850 160.132  31.877  1.00  0.00     0.123 A 
ATOM     25  C   UNL     1      48.362 160.938  32.885  1.00  0.00     0.039 A 
ATOM     26  F   UNL     1      46.558 159.784  31.903  1.00  0.00    -0.207 F 
ENDBRANCH  19  20
ENDBRANCH  18  19
ENDBRANCH   4  18
TORSDOF 7
ENDMDL
MODEL 5
REMARK VINA RESULT:    -9.523      1.708      2.071
REMARK INTER + INTRA:         -13.996
REMARK INTER:                 -13.248
REMARK INTRA:                  -0.748
REMARK UNBOUND:                -0.576
REMARK SMILES C[C@H]([NH2+]Cc1ccc(OCc2cccc(F)c2)cc1)C(N)=O
REMARK SMILES IDX 5 1 6 2 7 3 8 4 18 5 19 6 4 7 3 8 2 11 1 12 20 13 21 14
REMARK SMILES IDX 22 15 9 18 10 19 11 20 12 21 17 22 13 23 15 24 14 25 16 26
REMARK H PARENT 3 9 3 10 21 16 21 17
ROOT
ATOM      1  C   UNL     1      52.979 155.190  26.131  1.00  0.00     0.006 A 
ATOM      2  C   UNL     1      52.230 154.317  26.931  1.00  0.00     0.013 A 
ATOM      3  C   UNL     1      51.724 154.750  28.159  1.00  0.00     0.047 A 
ATOM      4  C   UNL     1      51.958 156.049  28.615  1.00  0.00     0.119 A 
ATOM      5  C   UNL     1      52.707 156.917  27.826  1.00  0.00     0.047 A 
ATOM      6  C   UNL     1      53.219 156.492  26.594  1.00  0.00     0.013 A 
ENDROOT
BRANCH   1   7
ATOM      7  C   UNL     1      53.557 154.723  24.827  1.00  0.00     0.297 C 
BRANCH   7   8
ATOM      8  N   UNL     1      53.161 153.324  24.551  1.00  0.00    -0.333 N 
ATOM      9  H   UNL     1      52.435 153.015  25.209  1.00  0.00     0.347 HD
ATOM     10  H   UNL     1      52.671 153.284  23.637  1.00  0.00     0.347 HD
BRANCH   8  11
ATOM     11  C   UNL     1      54.276 152.301  24.467  1.00  0.00     0.269 C 
ATOM     12  C   UNL     1      55.506 152.860  25.161  1.00  0.00     0.086 C 
BRANCH  11  13
ATOM     13  C   UNL     1      53.769 151.000  25.113  1.00  0.00     0.275 C 
ATOM     14  N   UNL     1      54.126 149.810  24.568  1.00  0.00    -0.365 N 
ATOM     15  O   UNL     1      53.021 151.068  26.089  1.00  0.00    -0.268 OA
ATOM     16  H   UNL     1      53.756 148.965  24.996  1.00  0.00     0.159 HD
ATOM     17  H   UNL     1      54.674 149.684  23.726  1.00  0.00     0.159 HD
ENDBRANCH  11  13
ENDBRANCH   8  11
ENDBRANCH   7   8
ENDBRANCH   1   7
BRANCH   4  18
ATOM     18  O   UNL     1      51.389 156.332  29.823  1.00  0.00    -0.489 OA
BRANCH  18  19
ATOM     19  C   UNL     1      50.016 156.731  29.872  1.00  0.00     0.265 C 
BRANCH  19  20
ATOM     20  C   UNL     1      49.834 158.188  30.230  1.00  0.00    -0.008 A 
ATOM     21  C   UNL     1      48.584 158.687  30.630  1.00  0.00     0.007 A 
ATOM     22  C   UNL     1      50.933 159.059  30.219  1.00  0.00     0.046 A 
ATOM     23  C   UNL     1      48.429 160.030  30.983  1.00  0.00     0.003 A 
ATOM     24  C   UNL     1      50.768 160.395  30.569  1.00  0.00     0.123 A 
ATOM     25  C   UNL     1      49.526 160.889  30.949  1.00  0.00     0.039 A 
ATOM     26  F   UNL     1      51.824 161.217  30.537  1.00  0.00    -0.207 F 
ENDBRANCH  19  20
ENDBRANCH  18  19
ENDBRANCH   4  18
TORSDOF 7
ENDMDL
MODEL 6
REMARK VINA RESULT:    -9.480      4.757      9.325
REMARK INTER + INTRA:         -13.935
REMARK INTER:                 -13.244
REMARK INTRA:                  -0.691
REMARK UNBOUND:                -0.576
REMARK SMILES C[C@H]([NH2+]Cc1ccc(OCc2cccc(F)c2)cc1)C(N)=O
REMARK SMILES IDX 5 1 6 2 7 3 8 4 18 5 19 6 4 7 3 8 2 11 1 12 20 13 21 14
REMARK SMILES IDX 22 15 9 18 10 19 11 20 12 21 17 22 13 23 15 24 14 25 16 26
REMARK H PARENT 3 9 3 10 21 16 21 17
ROOT
ATOM      1  C   UNL     1      50.511 157.797  30.027  1.00  0.00     0.006 A 
ATOM      2  C   UNL     1      50.205 156.449  29.795  1.00  0.00     0.013 A 
ATOM      3  C   UNL     1      51.100 155.637  29.095  1.00  0.00     0.047 A 
ATOM      4  C   UNL     1      52.306 156.148  28.609  1.00  0.00     0.119 A 
ATOM      5  C   UNL     1      52.610 157.488  28.832  1.00  0.00     0.047 A 
ATOM      6  C   UNL     1      51.718 158.310  29.533  1.00  0.00     0.013 A 
ENDROOT
BRANCH   1   7
ATOM      7  C   UNL     1      49.539 158.685  30.747  1.00  0.00     0.297 C 
BRANCH   7   8
ATOM      8  N   UNL     1      49.546 160.047  30.168  1.00  0.00    -0.333 N 
ATOM      9  H   UNL     1      50.407 160.208  29.630  1.00  0.00     0.347 HD
ATOM     10  H   UNL     1      48.809 160.110  29.441  1.00  0.00     0.347 HD
BRANCH   8  11
ATOM     11  C   UNL     1      49.289 161.197  31.121  1.00  0.00     0.269 C 
ATOM     12  C   UNL     1      48.067 160.870  31.963  1.00  0.00     0.086 C 
BRANCH  11  13
ATOM     13  C   UNL     1      50.558 161.398  31.968  1.00  0.00     0.275 C 
ATOM     14  N   UNL     1      50.431 161.694  33.285  1.00  0.00    -0.365 N 
ATOM     15  O   UNL     1      51.660 161.322  31.423  1.00  0.00    -0.268 OA
ATOM     16  H   UNL     1      51.283 161.849  33.819  1.00  0.00     0.159 HD
ATOM     17  H   UNL     1      49.560 161.844  33.779  1.00  0.00     0.159 HD
ENDBRANCH  11  13
ENDBRANCH   8  11
ENDBRANCH   7   8
ENDBRANCH   1   7
BRANCH   4  18
ATOM     18  O   UNL     1      53.084 155.234  27.959  1.00  0.00    -0.489 OA
BRANCH  18  19
ATOM     19  C   UNL     1      52.505 153.993  27.545  1.00  0.00     0.265 C 
BRANCH  19  20
ATOM     20  C   UNL     1      53.081 153.475  26.246  1.00  0.00    -0.008 A 
ATOM     21  C   UNL     1      53.417 154.350  25.201  1.00  0.00     0.007 A 
ATOM     22  C   UNL     1      53.338 152.106  26.087  1.00  0.00     0.046 A 
ATOM     23  C   UNL     1      53.971 153.865  24.013  1.00  0.00     0.003 A 
ATOM     24  C   UNL     1      53.887 151.634  24.899  1.00  0.00     0.123 A 
ATOM     25  C   UNL     1      54.204 152.499  23.861  1.00  0.00     0.039 A 
ATOM     26  F   UNL     1      54.111 150.322  24.757  1.00  0.00    -0.207 F 
ENDBRANCH  19  20
ENDBRANCH  18  19
ENDBRANCH   4  18
TORSDOF 7
ENDMDL
MODEL 7
REMARK VINA RESULT:    -9.437      1.742      2.407
REMARK INTER + INTRA:         -13.875
REMARK INTER:                 -13.301
REMARK INTRA:                  -0.573
REMARK UNBOUND:                -0.576
REMARK SMILES C[C@H]([NH2+]Cc1ccc(OCc2cccc(F)c2)cc1)C(N)=O
REMARK SMILES IDX 5 1 6 2 7 3 8 4 18 5 19 6 4 7 3 8 2 11 1 12 20 13 21 14
REMARK SMILES IDX 22 15 9 18 10 19 11 20 12 21 17 22 13 23 15 24 14 25 16 26
REMARK H PARENT 3 9 3 10 21 16 21 17
ROOT
ATOM      1  C   UNL     1      52.657 155.088  26.722  1.00  0.00     0.006 A 
ATOM      2  C   UNL     1      53.038 156.431  26.833  1.00  0.00     0.013 A 
ATOM      3  C   UNL     1      52.649 157.180  27.947  1.00  0.00     0.047 A 
ATOM      4  C   UNL     1      51.873 156.613  28.960  1.00  0.00     0.119 A 
ATOM      5  C   UNL     1      51.487 155.280  28.849  1.00  0.00     0.047 A 
ATOM      6  C   UNL     1      51.872 154.522  27.736  1.00  0.00     0.013 A 
ENDROOT
BRANCH   1   7
ATOM      7  C   UNL     1      53.039 154.286  25.512  1.00  0.00     0.297 C 
BRANCH   7   8
ATOM      8  N   UNL     1      52.967 152.836  25.800  1.00  0.00    -0.333 N 
ATOM      9  H   UNL     1      53.101 152.658  26.804  1.00  0.00     0.347 HD
ATOM     10  H   UNL     1      51.997 152.506  25.638  1.00  0.00     0.347 HD
BRANCH   8  11
ATOM     11  C   UNL     1      53.857 151.929  24.974  1.00  0.00     0.269 C 
ATOM     12  C   UNL     1      55.308 152.269  25.266  1.00  0.00     0.086 C 
BRANCH  11  13
ATOM     13  C   UNL     1      53.504 150.474  25.330  1.00  0.00     0.275 C 
ATOM     14  N   UNL     1      54.179 149.465  24.726  1.00  0.00    -0.365 N 
ATOM     15  O   UNL     1      52.593 150.258  26.130  1.00  0.00    -0.268 OA
ATOM     16  H   UNL     1      53.910 148.512  24.957  1.00  0.00     0.159 HD
ATOM     17  H   UNL     1      54.885 149.570  24.008  1.00  0.00     0.159 HD
ENDBRANCH  11  13
ENDBRANCH   8  11
ENDBRANCH   7   8
ENDBRANCH   1   7
BRANCH   4  18
ATOM     18  O   UNL     1      51.585 157.461  29.990  1.00  0.00    -0.489 OA
BRANCH  18  19
ATOM     19  C   UNL     1      51.467 158.863  29.728  1.00  0.00     0.265 C 
BRANCH  19  20
ATOM     20  C   UNL     1      50.515 159.563  30.671  1.00  0.00    -0.008 A 
ATOM     21  C   UNL     1      50.943 160.636  31.470  1.00  0.00     0.007 A 
ATOM     22  C   UNL     1      49.167 159.182  30.722  1.00  0.00     0.046 A 
ATOM     23  C   UNL     1      50.051 161.294  32.321  1.00  0.00     0.003 A 
ATOM     24  C   UNL     1      48.288 159.842  31.575  1.00  0.00     0.123 A 
ATOM     25  C   UNL     1      48.717 160.892  32.376  1.00  0.00     0.039 A 
ATOM     26  F   UNL     1      47.007 159.455  31.624  1.00  0.00    -0.207 F 
ENDBRANCH  19  20
ENDBRANCH  18  19
ENDBRANCH   4  18
TORSDOF 7
ENDMDL
MODEL 8
REMARK VINA RESULT:    -9.316      4.885      9.374
REMARK INTER + INTRA:         -13.704
REMARK INTER:                 -13.084
REMARK INTRA:                  -0.621
REMARK UNBOUND:                -0.576
REMARK SMILES C[C@H]([NH2+]Cc1ccc(OCc2cccc(F)c2)cc1)C(N)=O
REMARK SMILES IDX 5 1 6 2 7 3 8 4 18 5 19 6 4 7 3 8 2 11 1 12 20 13 21 14
REMARK SMILES IDX 22 15 9 18 10 19 11 20 12 21 17 22 13 23 15 24 14 25 16 26
REMARK H PARENT 3 9 3 10 21 16 21 17
ROOT
ATOM      1  C   UNL     1      50.397 157.777  29.994  1.00  0.00     0.006 A 
ATOM      2  C   UNL     1      50.098 156.415  29.856  1.00  0.00     0.013 A 
ATOM      3  C   UNL     1      51.018 155.552  29.256  1.00  0.00     0.047 A 
ATOM      4  C   UNL     1      52.242 156.025  28.777  1.00  0.00     0.119 A 
ATOM      5  C   UNL     1      52.539 157.379  28.906  1.00  0.00     0.047 A 
ATOM      6  C   UNL     1      51.622 158.251  29.506  1.00  0.00     0.013 A 
ENDROOT
BRANCH   1   7
ATOM      7  C   UNL     1      49.399 158.717  30.604  1.00  0.00     0.297 C 
BRANCH   7   8
ATOM      8  N   UNL     1      49.917 160.104  30.601  1.00  0.00    -0.333 N 
ATOM      9  H   UNL     1      50.536 160.258  29.796  1.00  0.00     0.347 HD
ATOM     10  H   UNL     1      49.133 160.758  30.414  1.00  0.00     0.347 HD
BRANCH   8  11
ATOM     11  C   UNL     1      50.569 160.593  31.879  1.00  0.00     0.269 C 
ATOM     12  C   UNL     1      51.851 161.326  31.524  1.00  0.00     0.086 C 
BRANCH  11  13
ATOM     13  C   UNL     1      49.555 161.489  32.610  1.00  0.00     0.275 C 
ATOM     14  N   UNL     1      48.549 162.061  31.902  1.00  0.00    -0.365 N 
ATOM     15  O   UNL     1      49.699 161.697  33.816  1.00  0.00    -0.268 OA
ATOM     16  H   UNL     1      47.907 162.671  32.401  1.00  0.00     0.159 HD
ATOM     17  H   UNL     1      48.416 161.994  30.901  1.00  0.00     0.159 HD
ENDBRANCH  11  13
ENDBRANCH   8  11
ENDBRANCH   7   8
ENDBRANCH   1   7
BRANCH   4  18
ATOM     18  O   UNL     1      53.042 155.064  28.231  1.00  0.00    -0.489 OA
BRANCH  18  19
ATOM     19  C   UNL     1      52.442 153.962  27.544  1.00  0.00     0.265 C 
BRANCH  19  20
ATOM     20  C   UNL     1      53.116 153.646  26.229  1.00  0.00    -0.008 A 
ATOM     21  C   UNL     1      53.625 154.666  25.410  1.00  0.00     0.007 A 
ATOM     22  C   UNL     1      53.291 152.313  25.830  1.00  0.00     0.046 A 
ATOM     23  C   UNL     1      54.269 154.364  24.207  1.00  0.00     0.003 A 
ATOM     24  C   UNL     1      53.931 152.023  24.629  1.00  0.00     0.123 A 
ATOM     25  C   UNL     1      54.419 153.035  23.813  1.00  0.00     0.039 A 
ATOM     26  F   UNL     1      54.075 150.746  24.254  1.00  0.00    -0.207 F 
ENDBRANCH  19  20
ENDBRANCH  18  19
ENDBRANCH   4  18
TORSDOF 7
ENDMDL
MODEL 9
REMARK VINA RESULT:    -9.193      4.493      9.198
REMARK INTER + INTRA:         -13.531
REMARK INTER:                 -12.813
REMARK INTRA:                  -0.718
REMARK UNBOUND:                -0.576
REMARK SMILES C[C@H]([NH2+]Cc1ccc(OCc2cccc(F)c2)cc1)C(N)=O
REMARK SMILES IDX 5 1 6 2 7 3 8 4 18 5 19 6 4 7 3 8 2 11 1 12 20 13 21 14
REMARK SMILES IDX 22 15 9 18 10 19 11 20 12 21 17 22 13 23 15 24 14 25 16 26
REMARK H PARENT 3 9 3 10 21 16 21 17
ROOT
ATOM      1  C   UNL     1      51.263 158.258  29.729  1.00  0.00     0.006 A 
ATOM      2  C   UNL     1      52.435 157.934  29.033  1.00  0.00     0.013 A 
ATOM      3  C   UNL     1      52.676 156.616  28.639  1.00  0.00     0.047 A 
ATOM      4  C   UNL     1      51.765 155.599  28.935  1.00  0.00     0.119 A 
ATOM      5  C   UNL     1      50.603 155.916  29.632  1.00  0.00     0.047 A 
ATOM      6  C   UNL     1      50.353 157.235  30.031  1.00  0.00     0.013 A 
ENDROOT
BRANCH   1   7
ATOM      7  C   UNL     1      51.013 159.665  30.188  1.00  0.00     0.297 C 
BRANCH   7   8
ATOM      8  N   UNL     1      50.169 159.677  31.403  1.00  0.00    -0.333 N 
ATOM      9  H   UNL     1      49.835 158.730  31.623  1.00  0.00     0.347 HD
ATOM     10  H   UNL     1      50.759 159.907  32.225  1.00  0.00     0.347 HD
BRANCH   8  11
ATOM     11  C   UNL     1      49.021 160.667  31.428  1.00  0.00     0.269 C 
ATOM     12  C   UNL     1      47.713 159.902  31.322  1.00  0.00     0.086 C 
BRANCH  11  13
ATOM     13  C   UNL     1      49.131 161.479  32.730  1.00  0.00     0.275 C 
ATOM     14  N   UNL     1      50.345 161.938  33.121  1.00  0.00    -0.365 N 
ATOM     15  O   UNL     1      48.119 161.665  33.408  1.00  0.00    -0.268 OA
ATOM     16  H   UNL     1      50.398 162.449  33.999  1.00  0.00     0.159 HD
ATOM     17  H   UNL     1      51.226 161.760  32.653  1.00  0.00     0.159 HD
ENDBRANCH  11  13
ENDBRANCH   8  11
ENDBRANCH   7   8
ENDBRANCH   1   7
BRANCH   4  18
ATOM     18  O   UNL     1      52.128 154.367  28.473  1.00  0.00    -0.489 OA
BRANCH  18  19
ATOM     19  C   UNL     1      51.714 153.962  27.165  1.00  0.00     0.265 C 
BRANCH  19  20
ATOM     20  C   UNL     1      52.871 153.775  26.209  1.00  0.00    -0.008 A 
ATOM     21  C   UNL     1      53.339 152.494  25.877  1.00  0.00     0.007 A 
ATOM     22  C   UNL     1      53.463 154.888  25.595  1.00  0.00     0.046 A 
ATOM     23  C   UNL     1      54.392 152.329  24.974  1.00  0.00     0.003 A 
ATOM     24  C   UNL     1      54.513 154.713  24.700  1.00  0.00     0.123 A 
ATOM     25  C   UNL     1      54.985 153.445  24.386  1.00  0.00     0.039 A 
ATOM     26  F   UNL     1      55.078 155.786  24.134  1.00  0.00    -0.207 F 
ENDBRANCH  19  20
ENDBRANCH  18  19
ENDBRANCH   4  18
TORSDOF 7
ENDMDL
