MODEL 1
REMARK VINA RESULT:    -6.420      0.000      0.000
REMARK INTER + INTRA:         -10.665
REMARK INTER:                  -9.610
REMARK INTRA:                  -1.055
REMARK UNBOUND:                -1.055
REMARK SMILES O=c1c(O[C@@H]2O[C@H]([C@H](O)CO)[C@H](O)[C@H]2O)c(-c2ccc([O-])c(O)c2)oc2cc(O)cc(O)c12
REMARK SMILES IDX 5 1 6 2 7 3 12 4 14 5 4 6 3 7 1 8 2 9 33 10 16 11 31 12
REMARK SMILES IDX 26 13 25 14 30 15 27 16 28 17 17 18 18 19 24 20 19 21 22 22
REMARK SMILES IDX 20 23 21 24 23 25 32 27 29 29 15 31 8 33 9 34 10 36 11 37
REMARK SMILES IDX 13 39
REMARK H PARENT 23 26 32 28 29 30 15 32 9 35 11 38 13 40
ROOT
ATOM      1  C   UNL     1      52.636 164.886  40.356  1.00  0.00     0.339 C 
ATOM      2  O   UNL     1      53.904 165.304  39.816  1.00  0.00    -0.332 OA
ATOM      3  C   UNL     1      53.934 166.749  39.799  1.00  0.00     0.185 C 
ATOM      4  C   UNL     1      52.466 167.127  39.587  1.00  0.00     0.181 C 
ATOM      5  C   UNL     1      51.749 166.130  40.477  1.00  0.00     0.214 C 
ENDROOT
BRANCH   1   6
ATOM      6  O   UNL     1      52.799 164.356  41.672  1.00  0.00    -0.454 OA
BRANCH   6   7
ATOM      7  C   UNL     1      52.363 163.054  41.814  1.00  0.00     0.214 A 
ATOM      8  O   UNL     1      50.058 163.659  41.832  1.00  0.00    -0.285 OA
ATOM      9  C   UNL     1      50.908 162.770  41.896  1.00  0.00     0.239 A 
ATOM     10  C   UNL     1      50.512 161.364  42.063  1.00  0.00     0.111 A 
ATOM     11  C   UNL     1      53.215 162.025  41.980  1.00  0.00     0.180 A 
ATOM     12  C   UNL     1      49.167 160.980  42.116  1.00  0.00     0.134 A 
ATOM     13  C   UNL     1      51.512 160.399  42.171  1.00  0.00     0.146 A 
ATOM     14  O   UNL     1      52.850 160.702  42.137  1.00  0.00    -0.452 OA
ATOM     15  C   UNL     1      48.823 159.639  42.270  1.00  0.00     0.093 A 
ATOM     16  C   UNL     1      51.174 159.055  42.326  1.00  0.00     0.094 A 
ATOM     17  C   UNL     1      49.832 158.686  42.373  1.00  0.00     0.123 A 
BRANCH  11  18
ATOM     18  C   UNL     1      54.666 162.256  41.973  1.00  0.00     0.025 A 
ATOM     19  C   UNL     1      55.208 163.372  42.622  1.00  0.00     0.012 A 
ATOM     20  C   UNL     1      55.511 161.425  41.243  1.00  0.00     0.057 A 
ATOM     21  C   UNL     1      56.567 163.690  42.479  1.00  0.00    -0.004 A 
ATOM     22  C   UNL     1      56.852 161.778  41.117  1.00  0.00     0.108 A 
ATOM     23  C   UNL     1      57.439 162.931  41.685  1.00  0.00    -0.066 A 
ATOM     24  O   UNL     1      58.649 163.270  41.447  1.00  0.00    -0.870 OA
BRANCH  22  25
ATOM     25  O   UNL     1      57.677 160.992  40.345  1.00  0.00    -0.509 OA
ATOM     26  H   UNL     1      57.622 160.163  40.881  1.00  0.00     0.293 HD
ENDBRANCH  22  25
ENDBRANCH  11  18
BRANCH  12  27
ATOM     27  O   UNL     1      48.130 161.871  42.023  1.00  0.00    -0.507 OA
ATOM     28  H   UNL     1      48.510 162.770  41.904  1.00  0.00     0.293 HD
ENDBRANCH  12  27
BRANCH  17  29
ATOM     29  O   UNL     1      49.542 157.362  42.526  1.00  0.00    -0.508 OA
ATOM     30  H   UNL     1      50.178 156.841  42.008  1.00  0.00     0.293 HD
ENDBRANCH  17  29
ENDBRANCH   6   7
ENDBRANCH   1   6
BRANCH   5  31
ATOM     31  O   UNL     1      50.404 165.912  40.036  1.00  0.00    -0.384 OA
ATOM     32  H   UNL     1      50.077 165.134  40.537  1.00  0.00     0.211 HD
ENDBRANCH   5  31
BRANCH   3  33
ATOM     33  C   UNL     1      54.616 167.288  41.073  1.00  0.00     0.171 C 
BRANCH  33  34
ATOM     34  O   UNL     1      54.381 168.695  41.232  1.00  0.00    -0.388 OA
ATOM     35  H   UNL     1      55.198 169.104  40.873  1.00  0.00     0.211 HD
ENDBRANCH  33  34
BRANCH  33  36
ATOM     36  C   UNL     1      56.136 167.072  41.036  1.00  0.00     0.190 C 
BRANCH  36  37
ATOM     37  O   UNL     1      56.679 167.843  39.957  1.00  0.00    -0.394 OA
ATOM     38  H   UNL     1      57.658 167.691  40.000  1.00  0.00     0.210 HD
ENDBRANCH  36  37
ENDBRANCH  33  36
ENDBRANCH   3  33
BRANCH   4  39
ATOM     39  O   UNL     1      52.094 168.461  39.882  1.00  0.00    -0.387 OA
ATOM     40  H   UNL     1      51.137 168.444  40.062  1.00  0.00     0.211 HD
ENDBRANCH   4  39
TORSDOF 12
ENDMDL
MODEL 2
REMARK VINA RESULT:    -6.263      2.128      5.356
REMARK INTER + INTRA:         -10.431
REMARK INTER:                  -8.523
REMARK INTRA:                  -1.908
REMARK UNBOUND:                -1.055
REMARK SMILES O=c1c(O[C@@H]2O[C@H]([C@H](O)CO)[C@H](O)[C@H]2O)c(-c2ccc([O-])c(O)c2)oc2cc(O)cc(O)c12
REMARK SMILES IDX 5 1 6 2 7 3 12 4 14 5 4 6 3 7 1 8 2 9 33 10 16 11 31 12
REMARK SMILES IDX 26 13 25 14 30 15 27 16 28 17 17 18 18 19 24 20 19 21 22 22
REMARK SMILES IDX 20 23 21 24 23 25 32 27 29 29 15 31 8 33 9 34 10 36 11 37
REMARK SMILES IDX 13 39
REMARK H PARENT 23 26 32 28 29 30 15 32 9 35 11 38 13 40
ROOT
ATOM      1  C   UNL     1      53.691 164.102  42.261  1.00  0.00     0.339 C 
ATOM      2  O   UNL     1      54.716 165.046  42.622  1.00  0.00    -0.332 OA
ATOM      3  C   UNL     1      56.000 164.450  42.334  1.00  0.00     0.185 C 
ATOM      4  C   UNL     1      55.751 162.956  42.552  1.00  0.00     0.181 C 
ATOM      5  C   UNL     1      54.377 162.770  41.937  1.00  0.00     0.214 C 
ENDROOT
BRANCH   1   6
ATOM      6  O   UNL     1      53.011 164.524  41.078  1.00  0.00    -0.454 OA
BRANCH   6   7
ATOM      7  C   UNL     1      51.647 164.670  41.232  1.00  0.00     0.214 A 
ATOM      8  O   UNL     1      51.254 162.325  41.395  1.00  0.00    -0.285 OA
ATOM      9  C   UNL     1      50.791 163.466  41.388  1.00  0.00     0.239 A 
ATOM     10  C   UNL     1      49.345 163.691  41.532  1.00  0.00     0.111 A 
ATOM     11  C   UNL     1      51.039 165.868  41.151  1.00  0.00     0.180 A 
ATOM     12  C   UNL     1      48.451 162.631  41.720  1.00  0.00     0.134 A 
ATOM     13  C   UNL     1      48.866 165.000  41.477  1.00  0.00     0.146 A 
ATOM     14  O   UNL     1      49.681 166.087  41.286  1.00  0.00    -0.452 OA
ATOM     15  C   UNL     1      47.087 162.876  41.858  1.00  0.00     0.093 A 
ATOM     16  C   UNL     1      47.501 165.251  41.614  1.00  0.00     0.094 A 
ATOM     17  C   UNL     1      46.623 164.188  41.804  1.00  0.00     0.123 A 
BRANCH  11  18
ATOM     18  C   UNL     1      51.829 167.088  40.933  1.00  0.00     0.025 A 
ATOM     19  C   UNL     1      51.851 167.701  39.674  1.00  0.00     0.012 A 
ATOM     20  C   UNL     1      52.641 167.594  41.943  1.00  0.00     0.057 A 
ATOM     21  C   UNL     1      52.729 168.762  39.413  1.00  0.00    -0.004 A 
ATOM     22  C   UNL     1      53.506 168.643  41.643  1.00  0.00     0.108 A 
ATOM     23  C   UNL     1      53.627 169.251  40.374  1.00  0.00    -0.066 A 
ATOM     24  O   UNL     1      54.516 170.135  40.120  1.00  0.00    -0.870 OA
BRANCH  22  25
ATOM     25  O   UNL     1      54.355 169.106  42.622  1.00  0.00    -0.509 OA
ATOM     26  H   UNL     1      54.766 168.241  42.872  1.00  0.00     0.293 HD
ENDBRANCH  22  25
ENDBRANCH  11  18
BRANCH  12  27
ATOM     27  O   UNL     1      48.846 161.321  41.779  1.00  0.00    -0.507 OA
ATOM     28  H   UNL     1      49.165 161.138  42.690  1.00  0.00     0.293 HD
ENDBRANCH  12  27
BRANCH  17  29
ATOM     29  O   UNL     1      45.296 164.475  41.933  1.00  0.00    -0.508 OA
ATOM     30  H   UNL     1      45.107 165.301  41.459  1.00  0.00     0.293 HD
ENDBRANCH  17  29
ENDBRANCH   6   7
ENDBRANCH   1   6
BRANCH   5  31
ATOM     31  O   UNL     1      53.705 161.636  42.495  1.00  0.00    -0.384 OA
ATOM     32  H   UNL     1      53.674 161.788  43.464  1.00  0.00     0.211 HD
ENDBRANCH   5  31
BRANCH   3  33
ATOM     33  C   UNL     1      56.491 164.878  40.935  1.00  0.00     0.171 C 
BRANCH  33  34
ATOM     34  O   UNL     1      57.900 164.653  40.788  1.00  0.00    -0.388 OA
ATOM     35  H   UNL     1      58.061 164.830  39.835  1.00  0.00     0.211 HD
ENDBRANCH  33  34
BRANCH  33  36
ATOM     36  C   UNL     1      56.229 166.370  40.676  1.00  0.00     0.190 C 
BRANCH  36  37
ATOM     37  O   UNL     1      56.620 167.109  41.839  1.00  0.00    -0.394 OA
ATOM     38  H   UNL     1      57.245 166.513  42.324  1.00  0.00     0.210 HD
ENDBRANCH  36  37
ENDBRANCH  33  36
ENDBRANCH   3  33
BRANCH   4  39
ATOM     39  O   UNL     1      56.699 162.056  42.007  1.00  0.00    -0.387 OA
ATOM     40  H   UNL     1      56.566 161.209  42.468  1.00  0.00     0.211 HD
ENDBRANCH   4  39
TORSDOF 12
ENDMDL
MODEL 3
REMARK VINA RESULT:    -6.161      2.040      5.107
REMARK INTER + INTRA:         -10.277
REMARK INTER:                  -8.910
REMARK INTRA:                  -1.368
REMARK UNBOUND:                -1.055
REMARK SMILES O=c1c(O[C@@H]2O[C@H]([C@H](O)CO)[C@H](O)[C@H]2O)c(-c2ccc([O-])c(O)c2)oc2cc(O)cc(O)c12
REMARK SMILES IDX 5 1 6 2 7 3 12 4 14 5 4 6 3 7 1 8 2 9 33 10 16 11 31 12
REMARK SMILES IDX 26 13 25 14 30 15 27 16 28 17 17 18 18 19 24 20 19 21 22 22
REMARK SMILES IDX 20 23 21 24 23 25 32 27 29 29 15 31 8 33 9 34 10 36 11 37
REMARK SMILES IDX 13 39
REMARK H PARENT 23 26 32 28 29 30 15 32 9 35 11 38 13 40
ROOT
ATOM      1  C   UNL     1      52.583 165.439  40.509  1.00  0.00     0.339 C 
ATOM      2  O   UNL     1      53.974 165.727  40.275  1.00  0.00    -0.332 OA
ATOM      3  C   UNL     1      54.132 167.161  40.199  1.00  0.00     0.185 C 
ATOM      4  C   UNL     1      52.795 167.631  39.620  1.00  0.00     0.181 C 
ATOM      5  C   UNL     1      51.803 166.749  40.354  1.00  0.00     0.214 C 
ENDROOT
BRANCH   1   6
ATOM      6  O   UNL     1      52.380 164.985  41.849  1.00  0.00    -0.454 OA
BRANCH   6   7
ATOM      7  C   UNL     1      52.364 163.612  41.983  1.00  0.00     0.214 A 
ATOM      8  O   UNL     1      54.729 163.448  42.223  1.00  0.00    -0.285 OA
ATOM      9  C   UNL     1      53.640 162.876  42.172  1.00  0.00     0.239 A 
ATOM     10  C   UNL     1      53.554 161.413  42.292  1.00  0.00     0.111 A 
ATOM     11  C   UNL     1      51.235 162.890  41.854  1.00  0.00     0.180 A 
ATOM     12  C   UNL     1      54.691 160.624  42.507  1.00  0.00     0.134 A 
ATOM     13  C   UNL     1      52.302 160.809  42.187  1.00  0.00     0.146 A 
ATOM     14  O   UNL     1      51.147 161.516  41.967  1.00  0.00    -0.452 OA
ATOM     15  C   UNL     1      54.576 159.241  42.622  1.00  0.00     0.093 A 
ATOM     16  C   UNL     1      52.182 159.424  42.300  1.00  0.00     0.094 A 
ATOM     17  C   UNL     1      53.319 158.652  42.518  1.00  0.00     0.123 A 
BRANCH  11  18
ATOM     18  C   UNL     1      49.951 163.560  41.602  1.00  0.00     0.025 A 
ATOM     19  C   UNL     1      49.567 164.665  42.372  1.00  0.00     0.012 A 
ATOM     20  C   UNL     1      49.060 163.049  40.664  1.00  0.00     0.057 A 
ATOM     21  C   UNL     1      48.278 165.203  42.251  1.00  0.00    -0.004 A 
ATOM     22  C   UNL     1      47.786 163.605  40.580  1.00  0.00     0.108 A 
ATOM     23  C   UNL     1      47.316 164.669  41.381  1.00  0.00    -0.066 A 
ATOM     24  O   UNL     1      46.102 165.070  41.343  1.00  0.00    -0.870 OA
BRANCH  22  25
ATOM     25  O   UNL     1      46.881 163.062  39.696  1.00  0.00    -0.509 OA
ATOM     26  H   UNL     1      46.346 162.541  40.346  1.00  0.00     0.293 HD
ENDBRANCH  22  25
ENDBRANCH  11  18
BRANCH  12  27
ATOM     27  O   UNL     1      55.953 161.146  42.616  1.00  0.00    -0.507 OA
ATOM     28  H   UNL     1      56.334 161.215  41.713  1.00  0.00     0.293 HD
ENDBRANCH  12  27
BRANCH  17  29
ATOM     29  O   UNL     1      53.161 157.301  42.622  1.00  0.00    -0.508 OA
ATOM     30  H   UNL     1      52.403 157.032  42.078  1.00  0.00     0.293 HD
ENDBRANCH  17  29
ENDBRANCH   6   7
ENDBRANCH   1   6
BRANCH   5  31
ATOM     31  O   UNL     1      50.588 166.601  39.610  1.00  0.00    -0.384 OA
ATOM     32  H   UNL     1      50.844 166.631  38.663  1.00  0.00     0.211 HD
ENDBRANCH   5  31
BRANCH   3  33
ATOM     33  C   UNL     1      54.534 167.732  41.575  1.00  0.00     0.171 C 
BRANCH  33  34
ATOM     34  O   UNL     1      54.413 169.161  41.600  1.00  0.00    -0.388 OA
ATOM     35  H   UNL     1      54.526 169.416  40.658  1.00  0.00     0.211 HD
ENDBRANCH  33  34
BRANCH  33  36
ATOM     36  C   UNL     1      55.988 167.382  41.929  1.00  0.00     0.190 C 
BRANCH  36  37
ATOM     37  O   UNL     1      56.118 165.956  41.962  1.00  0.00    -0.394 OA
ATOM     38  H   UNL     1      56.857 165.751  41.334  1.00  0.00     0.210 HD
ENDBRANCH  36  37
ENDBRANCH  33  36
ENDBRANCH   3  33
BRANCH   4  39
ATOM     39  O   UNL     1      52.480 169.005  39.754  1.00  0.00    -0.387 OA
ATOM     40  H   UNL     1      51.577 169.113  39.407  1.00  0.00     0.211 HD
ENDBRANCH   4  39
TORSDOF 12
ENDMDL
MODEL 4
REMARK VINA RESULT:    -6.095      8.044      9.475
REMARK INTER + INTRA:         -10.179
REMARK INTER:                  -9.004
REMARK INTRA:                  -1.175
REMARK UNBOUND:                -1.055
REMARK SMILES O=c1c(O[C@@H]2O[C@H]([C@H](O)CO)[C@H](O)[C@H]2O)c(-c2ccc([O-])c(O)c2)oc2cc(O)cc(O)c12
REMARK SMILES IDX 5 1 6 2 7 3 12 4 14 5 4 6 3 7 1 8 2 9 33 10 16 11 31 12
REMARK SMILES IDX 26 13 25 14 30 15 27 16 28 17 17 18 18 19 24 20 19 21 22 22
REMARK SMILES IDX 20 23 21 24 23 25 32 27 29 29 15 31 8 33 9 34 10 36 11 37
REMARK SMILES IDX 13 39
REMARK H PARENT 23 26 32 28 29 30 15 32 9 35 11 38 13 40
ROOT
ATOM      1  C   UNL     1      60.332 165.157  35.552  1.00  0.00     0.339 C 
ATOM      2  O   UNL     1      61.723 165.438  35.308  1.00  0.00    -0.332 OA
ATOM      3  C   UNL     1      61.811 166.682  34.576  1.00  0.00     0.185 C 
ATOM      4  C   UNL     1      60.522 166.695  33.752  1.00  0.00     0.181 C 
ATOM      5  C   UNL     1      59.505 166.163  34.743  1.00  0.00     0.214 C 
ENDROOT
BRANCH   1   6
ATOM      6  O   UNL     1      60.011 165.360  36.929  1.00  0.00    -0.454 OA
BRANCH   6   7
ATOM      7  C   UNL     1      60.250 164.263  37.732  1.00  0.00     0.214 A 
ATOM      8  O   UNL     1      58.850 162.821  36.450  1.00  0.00    -0.285 OA
ATOM      9  C   UNL     1      59.599 162.965  37.417  1.00  0.00     0.239 A 
ATOM     10  C   UNL     1      59.883 161.842  38.322  1.00  0.00     0.111 A 
ATOM     11  C   UNL     1      60.983 164.343  38.858  1.00  0.00     0.180 A 
ATOM     12  C   UNL     1      59.351 160.566  38.099  1.00  0.00     0.134 A 
ATOM     13  C   UNL     1      60.705 162.066  39.425  1.00  0.00     0.146 A 
ATOM     14  O   UNL     1      61.254 163.291  39.712  1.00  0.00    -0.452 OA
ATOM     15  C   UNL     1      59.642 159.520  38.971  1.00  0.00     0.093 A 
ATOM     16  C   UNL     1      60.999 161.022  40.302  1.00  0.00     0.094 A 
ATOM     17  C   UNL     1      60.466 159.758  40.068  1.00  0.00     0.123 A 
BRANCH  11  18
ATOM     18  C   UNL     1      61.598 165.617  39.254  1.00  0.00     0.025 A 
ATOM     19  C   UNL     1      60.914 166.500  40.099  1.00  0.00     0.012 A 
ATOM     20  C   UNL     1      62.822 166.007  38.720  1.00  0.00     0.057 A 
ATOM     21  C   UNL     1      61.418 167.785  40.346  1.00  0.00    -0.004 A 
ATOM     22  C   UNL     1      63.285 167.294  38.981  1.00  0.00     0.108 A 
ATOM     23  C   UNL     1      62.605 168.254  39.762  1.00  0.00    -0.066 A 
ATOM     24  O   UNL     1      63.018 169.458  39.879  1.00  0.00    -0.870 OA
BRANCH  22  25
ATOM     25  O   UNL     1      64.466 167.705  38.404  1.00  0.00    -0.509 OA
ATOM     26  H   UNL     1      65.077 167.449  39.139  1.00  0.00     0.293 HD
ENDBRANCH  22  25
ENDBRANCH  11  18
BRANCH  12  27
ATOM     27  O   UNL     1      58.532 160.272  37.041  1.00  0.00    -0.507 OA
ATOM     28  H   UNL     1      57.790 159.720  37.373  1.00  0.00     0.293 HD
ENDBRANCH  12  27
BRANCH  17  29
ATOM     29  O   UNL     1      60.777 158.764  40.948  1.00  0.00    -0.508 OA
ATOM     30  H   UNL     1      61.743 158.665  40.980  1.00  0.00     0.293 HD
ENDBRANCH  17  29
ENDBRANCH   6   7
ENDBRANCH   1   6
BRANCH   5  31
ATOM     31  O   UNL     1      58.387 165.569  34.074  1.00  0.00    -0.384 OA
ATOM     32  H   UNL     1      57.638 165.610  34.707  1.00  0.00     0.211 HD
ENDBRANCH   5  31
BRANCH   3  33
ATOM     33  C   UNL     1      62.032 167.862  35.545  1.00  0.00     0.171 C 
BRANCH  33  34
ATOM     34  O   UNL     1      60.830 168.628  35.712  1.00  0.00    -0.388 OA
ATOM     35  H   UNL     1      60.129 168.029  35.375  1.00  0.00     0.211 HD
ENDBRANCH  33  34
BRANCH  33  36
ATOM     36  C   UNL     1      63.124 168.815  35.037  1.00  0.00     0.190 C 
BRANCH  36  37
ATOM     37  O   UNL     1      62.855 169.125  33.664  1.00  0.00    -0.394 OA
ATOM     38  H   UNL     1      61.926 168.816  33.509  1.00  0.00     0.210 HD
ENDBRANCH  36  37
ENDBRANCH  33  36
ENDBRANCH   3  33
BRANCH   4  39
ATOM     39  O   UNL     1      60.121 167.937  33.200  1.00  0.00    -0.387 OA
ATOM     40  H   UNL     1      59.365 167.745  32.618  1.00  0.00     0.211 HD
ENDBRANCH   4  39
TORSDOF 12
ENDMDL
MODEL 5
REMARK VINA RESULT:    -6.068      1.813      5.572
REMARK INTER + INTRA:         -10.138
REMARK INTER:                  -9.357
REMARK INTRA:                  -0.781
REMARK UNBOUND:                -1.055
REMARK SMILES O=c1c(O[C@@H]2O[C@H]([C@H](O)CO)[C@H](O)[C@H]2O)c(-c2ccc([O-])c(O)c2)oc2cc(O)cc(O)c12
REMARK SMILES IDX 5 1 6 2 7 3 12 4 14 5 4 6 3 7 1 8 2 9 33 10 16 11 31 12
REMARK SMILES IDX 26 13 25 14 30 15 27 16 28 17 17 18 18 19 24 20 19 21 22 22
REMARK SMILES IDX 20 23 21 24 23 25 32 27 29 29 15 31 8 33 9 34 10 36 11 37
REMARK SMILES IDX 13 39
REMARK H PARENT 23 26 32 28 29 30 15 32 9 35 11 38 13 40
ROOT
ATOM      1  C   UNL     1      56.513 161.118  42.373  1.00  0.00     0.339 C 
ATOM      2  O   UNL     1      57.584 162.050  42.613  1.00  0.00    -0.332 OA
ATOM      3  C   UNL     1      58.820 161.439  42.179  1.00  0.00     0.185 C 
ATOM      4  C   UNL     1      58.580 159.948  42.425  1.00  0.00     0.181 C 
ATOM      5  C   UNL     1      57.143 159.779  41.972  1.00  0.00     0.214 C 
ENDROOT
BRANCH   1   6
ATOM      6  O   UNL     1      55.707 161.548  41.275  1.00  0.00    -0.454 OA
BRANCH   6   7
ATOM      7  C   UNL     1      54.349 161.503  41.520  1.00  0.00     0.214 A 
ATOM      8  O   UNL     1      54.292 159.124  41.650  1.00  0.00    -0.285 OA
ATOM      9  C   UNL     1      53.678 160.190  41.701  1.00  0.00     0.239 A 
ATOM     10  C   UNL     1      52.228 160.211  41.943  1.00  0.00     0.111 A 
ATOM     11  C   UNL     1      53.579 162.607  41.508  1.00  0.00     0.180 A 
ATOM     12  C   UNL     1      51.501 159.035  42.161  1.00  0.00     0.134 A 
ATOM     13  C   UNL     1      51.572 161.442  41.951  1.00  0.00     0.146 A 
ATOM     14  O   UNL     1      52.217 162.634  41.735  1.00  0.00    -0.452 OA
ATOM     15  C   UNL     1      50.129 159.087  42.393  1.00  0.00     0.093 A 
ATOM     16  C   UNL     1      50.198 161.500  42.181  1.00  0.00     0.094 A 
ATOM     17  C   UNL     1      49.488 160.323  42.401  1.00  0.00     0.123 A 
BRANCH  11  18
ATOM     18  C   UNL     1      54.179 163.927  41.270  1.00  0.00     0.025 A 
ATOM     19  C   UNL     1      54.982 164.526  42.248  1.00  0.00     0.012 A 
ATOM     20  C   UNL     1      53.880 164.641  40.114  1.00  0.00     0.057 A 
ATOM     21  C   UNL     1      55.419 165.850  42.099  1.00  0.00    -0.004 A 
ATOM     22  C   UNL     1      54.324 165.956  40.006  1.00  0.00     0.108 A 
ATOM     23  C   UNL     1      55.072 166.638  40.991  1.00  0.00    -0.066 A 
ATOM     24  O   UNL     1      55.360 167.880  40.894  1.00  0.00    -0.870 OA
BRANCH  22  25
ATOM     25  O   UNL     1      53.979 166.685  38.891  1.00  0.00    -0.509 OA
ATOM     26  H   UNL     1      53.025 166.832  39.110  1.00  0.00     0.293 HD
ENDBRANCH  22  25
ENDBRANCH  11  18
BRANCH  12  27
ATOM     27  O   UNL     1      52.075 157.791  42.162  1.00  0.00    -0.507 OA
ATOM     28  H   UNL     1      51.376 157.131  42.366  1.00  0.00     0.293 HD
ENDBRANCH  12  27
BRANCH  17  29
ATOM     29  O   UNL     1      48.146 160.422  42.622  1.00  0.00    -0.508 OA
ATOM     30  H   UNL     1      47.929 159.957  43.446  1.00  0.00     0.293 HD
ENDBRANCH  17  29
ENDBRANCH   6   7
ENDBRANCH   1   6
BRANCH   5  31
ATOM     31  O   UNL     1      56.527 158.651  42.604  1.00  0.00    -0.384 OA
ATOM     32  H   UNL     1      57.199 157.936  42.600  1.00  0.00     0.211 HD
ENDBRANCH   5  31
BRANCH   3  33
ATOM     33  C   UNL     1      59.151 161.863  40.734  1.00  0.00     0.171 C 
BRANCH  33  34
ATOM     34  O   UNL     1      60.197 161.051  40.180  1.00  0.00    -0.388 OA
ATOM     35  H   UNL     1      60.317 161.418  39.278  1.00  0.00     0.211 HD
ENDBRANCH  33  34
BRANCH  33  36
ATOM     36  C   UNL     1      59.615 163.327  40.665  1.00  0.00     0.190 C 
BRANCH  36  37
ATOM     37  O   UNL     1      58.539 164.166  41.100  1.00  0.00    -0.394 OA
ATOM     38  H   UNL     1      57.963 163.579  41.655  1.00  0.00     0.210 HD
ENDBRANCH  36  37
ENDBRANCH  33  36
ENDBRANCH   3  33
BRANCH   4  39
ATOM     39  O   UNL     1      59.449 159.038  41.775  1.00  0.00    -0.387 OA
ATOM     40  H   UNL     1      59.114 158.944  40.866  1.00  0.00     0.211 HD
ENDBRANCH   4  39
TORSDOF 12
ENDMDL
MODEL 6
REMARK VINA RESULT:    -5.971      7.124      8.381
REMARK INTER + INTRA:          -9.993
REMARK INTER:                  -7.900
REMARK INTRA:                  -2.093
REMARK UNBOUND:                -1.055
REMARK SMILES O=c1c(O[C@@H]2O[C@H]([C@H](O)CO)[C@H](O)[C@H]2O)c(-c2ccc([O-])c(O)c2)oc2cc(O)cc(O)c12
REMARK SMILES IDX 5 1 6 2 7 3 12 4 14 5 4 6 3 7 1 8 2 9 33 10 16 11 31 12
REMARK SMILES IDX 26 13 25 14 30 15 27 16 28 17 17 18 18 19 24 20 19 21 22 22
REMARK SMILES IDX 20 23 21 24 23 25 32 27 29 29 15 31 8 33 9 34 10 36 11 37
REMARK SMILES IDX 13 39
REMARK H PARENT 23 26 32 28 29 30 15 32 9 35 11 38 13 40
ROOT
ATOM      1  C   UNL     1      60.543 164.235  36.915  1.00  0.00     0.339 C 
ATOM      2  O   UNL     1      61.471 165.313  37.132  1.00  0.00    -0.332 OA
ATOM      3  C   UNL     1      61.301 166.277  36.068  1.00  0.00     0.185 C 
ATOM      4  C   UNL     1      60.871 165.414  34.879  1.00  0.00     0.181 C 
ATOM      5  C   UNL     1      59.917 164.430  35.530  1.00  0.00     0.214 C 
ENDROOT
BRANCH   1   6
ATOM      6  O   UNL     1      59.479 164.285  37.868  1.00  0.00    -0.454 OA
BRANCH   6   7
ATOM      7  C   UNL     1      59.531 163.291  38.824  1.00  0.00     0.214 A 
ATOM      8  O   UNL     1      58.985 161.558  37.282  1.00  0.00    -0.285 OA
ATOM      9  C   UNL     1      59.254 161.884  38.439  1.00  0.00     0.239 A 
ATOM     10  C   UNL     1      59.310 160.877  39.508  1.00  0.00     0.111 A 
ATOM     11  C   UNL     1      59.731 163.559  40.128  1.00  0.00     0.180 A 
ATOM     12  C   UNL     1      59.100 159.517  39.251  1.00  0.00     0.134 A 
ATOM     13  C   UNL     1      59.578 161.302  40.809  1.00  0.00     0.146 A 
ATOM     14  O   UNL     1      59.784 162.618  41.138  1.00  0.00    -0.452 OA
ATOM     15  C   UNL     1      59.164 158.586  40.285  1.00  0.00     0.093 A 
ATOM     16  C   UNL     1      59.642 160.374  41.849  1.00  0.00     0.094 A 
ATOM     17  C   UNL     1      59.436 159.024  41.578  1.00  0.00     0.123 A 
BRANCH  11  18
ATOM     18  C   UNL     1      59.946 164.941  40.577  1.00  0.00     0.025 A 
ATOM     19  C   UNL     1      58.857 165.745  40.940  1.00  0.00     0.012 A 
ATOM     20  C   UNL     1      61.219 165.501  40.556  1.00  0.00     0.057 A 
ATOM     21  C   UNL     1      59.037 167.109  41.207  1.00  0.00    -0.004 A 
ATOM     22  C   UNL     1      61.356 166.862  40.819  1.00  0.00     0.108 A 
ATOM     23  C   UNL     1      60.288 167.738  41.116  1.00  0.00    -0.066 A 
ATOM     24  O   UNL     1      60.452 169.000  41.239  1.00  0.00    -0.870 OA
BRANCH  22  25
ATOM     25  O   UNL     1      62.606 167.432  40.739  1.00  0.00    -0.509 OA
ATOM     26  H   UNL     1      63.141 166.628  40.954  1.00  0.00     0.293 HD
ENDBRANCH  22  25
ENDBRANCH  11  18
BRANCH  12  27
ATOM     27  O   UNL     1      58.826 159.027  38.001  1.00  0.00    -0.507 OA
ATOM     28  H   UNL     1      59.137 158.095  37.963  1.00  0.00     0.293 HD
ENDBRANCH  12  27
BRANCH  17  29
ATOM     29  O   UNL     1      59.506 158.148  42.621  1.00  0.00    -0.508 OA
ATOM     30  H   UNL     1      58.841 157.453  42.491  1.00  0.00     0.293 HD
ENDBRANCH  17  29
ENDBRANCH   6   7
ENDBRANCH   1   6
BRANCH   5  31
ATOM     31  O   UNL     1      59.824 163.218  34.773  1.00  0.00    -0.384 OA
ATOM     32  H   UNL     1      60.746 162.904  34.649  1.00  0.00     0.211 HD
ENDBRANCH   5  31
BRANCH   3  33
ATOM     33  C   UNL     1      60.332 167.395  36.505  1.00  0.00     0.171 C 
BRANCH  33  34
ATOM     34  O   UNL     1      59.941 168.208  35.389  1.00  0.00    -0.388 OA
ATOM     35  H   UNL     1      60.536 167.907  34.668  1.00  0.00     0.211 HD
ENDBRANCH  33  34
BRANCH  33  36
ATOM     36  C   UNL     1      60.971 168.320  37.553  1.00  0.00     0.190 C 
BRANCH  36  37
ATOM     37  O   UNL     1      62.353 167.968  37.688  1.00  0.00    -0.394 OA
ATOM     38  H   UNL     1      62.467 167.738  38.645  1.00  0.00     0.210 HD
ENDBRANCH  36  37
ENDBRANCH  33  36
ENDBRANCH   3  33
BRANCH   4  39
ATOM     39  O   UNL     1      60.275 166.080  33.780  1.00  0.00    -0.387 OA
ATOM     40  H   UNL     1      59.803 165.396  33.271  1.00  0.00     0.211 HD
ENDBRANCH   4  39
TORSDOF 12
ENDMDL
MODEL 7
REMARK VINA RESULT:    -5.923      6.943      8.382
REMARK INTER + INTRA:          -9.922
REMARK INTER:                  -7.938
REMARK INTRA:                  -1.984
REMARK UNBOUND:                -1.055
REMARK SMILES O=c1c(O[C@@H]2O[C@H]([C@H](O)CO)[C@H](O)[C@H]2O)c(-c2ccc([O-])c(O)c2)oc2cc(O)cc(O)c12
REMARK SMILES IDX 5 1 6 2 7 3 12 4 14 5 4 6 3 7 1 8 2 9 33 10 16 11 31 12
REMARK SMILES IDX 26 13 25 14 30 15 27 16 28 17 17 18 18 19 24 20 19 21 22 22
REMARK SMILES IDX 20 23 21 24 23 25 32 27 29 29 15 31 8 33 9 34 10 36 11 37
REMARK SMILES IDX 13 39
REMARK H PARENT 23 26 32 28 29 30 15 32 9 35 11 38 13 40
ROOT
ATOM      1  C   UNL     1      59.241 165.727  39.411  1.00  0.00     0.339 C 
ATOM      2  O   UNL     1      59.221 166.838  38.496  1.00  0.00    -0.332 OA
ATOM      3  C   UNL     1      59.541 168.038  39.237  1.00  0.00     0.185 C 
ATOM      4  C   UNL     1      58.984 167.748  40.632  1.00  0.00     0.181 C 
ATOM      5  C   UNL     1      59.365 166.293  40.830  1.00  0.00     0.214 C 
ENDROOT
BRANCH   1   6
ATOM      6  O   UNL     1      60.389 164.907  39.184  1.00  0.00    -0.454 OA
BRANCH   6   7
ATOM      7  C   UNL     1      60.095 163.586  38.914  1.00  0.00     0.214 A 
ATOM      8  O   UNL     1      60.075 162.955  41.212  1.00  0.00    -0.285 OA
ATOM      9  C   UNL     1      59.950 162.621  40.034  1.00  0.00     0.239 A 
ATOM     10  C   UNL     1      59.653 161.226  39.677  1.00  0.00     0.111 A 
ATOM     11  C   UNL     1      60.025 163.107  37.658  1.00  0.00     0.180 A 
ATOM     12  C   UNL     1      59.462 160.241  40.653  1.00  0.00     0.134 A 
ATOM     13  C   UNL     1      59.562 160.889  38.327  1.00  0.00     0.146 A 
ATOM     14  O   UNL     1      59.746 161.798  37.316  1.00  0.00    -0.452 OA
ATOM     15  C   UNL     1      59.176 158.929  40.284  1.00  0.00     0.093 A 
ATOM     16  C   UNL     1      59.277 159.577  37.951  1.00  0.00     0.094 A 
ATOM     17  C   UNL     1      59.086 158.608  38.932  1.00  0.00     0.123 A 
BRANCH  11  18
ATOM     18  C   UNL     1      60.224 164.003  36.511  1.00  0.00     0.025 A 
ATOM     19  C   UNL     1      61.483 164.566  36.262  1.00  0.00     0.012 A 
ATOM     20  C   UNL     1      59.148 164.382  35.714  1.00  0.00     0.057 A 
ATOM     21  C   UNL     1      61.642 165.549  35.275  1.00  0.00    -0.004 A 
ATOM     22  C   UNL     1      59.344 165.367  34.750  1.00  0.00     0.108 A 
ATOM     23  C   UNL     1      60.569 166.024  34.505  1.00  0.00    -0.066 A 
ATOM     24  O   UNL     1      60.671 167.000  33.685  1.00  0.00    -0.870 OA
BRANCH  22  25
ATOM     25  O   UNL     1      58.267 165.788  34.002  1.00  0.00    -0.509 OA
ATOM     26  H   UNL     1      58.406 166.763  34.093  1.00  0.00     0.293 HD
ENDBRANCH  22  25
ENDBRANCH  11  18
BRANCH  12  27
ATOM     27  O   UNL     1      59.541 160.496  41.997  1.00  0.00    -0.507 OA
ATOM     28  H   UNL     1      59.702 159.644  42.461  1.00  0.00     0.293 HD
ENDBRANCH  12  27
BRANCH  17  29
ATOM     29  O   UNL     1      58.809 157.336  38.525  1.00  0.00    -0.508 OA
ATOM     30  H   UNL     1      57.904 157.110  38.795  1.00  0.00     0.293 HD
ENDBRANCH  17  29
ENDBRANCH   6   7
ENDBRANCH   1   6
BRANCH   5  31
ATOM     31  O   UNL     1      58.499 165.652  41.774  1.00  0.00    -0.384 OA
ATOM     32  H   UNL     1      58.863 165.860  42.661  1.00  0.00     0.211 HD
ENDBRANCH   5  31
BRANCH   3  33
ATOM     33  C   UNL     1      61.050 168.345  39.138  1.00  0.00     0.171 C 
BRANCH  33  34
ATOM     34  O   UNL     1      61.347 169.655  39.642  1.00  0.00    -0.388 OA
ATOM     35  H   UNL     1      60.460 170.048  39.791  1.00  0.00     0.211 HD
ENDBRANCH  33  34
BRANCH  33  36
ATOM     36  C   UNL     1      61.546 168.283  37.685  1.00  0.00     0.190 C 
BRANCH  36  37
ATOM     37  O   UNL     1      60.465 168.650  36.819  1.00  0.00    -0.394 OA
ATOM     38  H   UNL     1      59.644 168.376  37.302  1.00  0.00     0.210 HD
ENDBRANCH  36  37
ENDBRANCH  33  36
ENDBRANCH   3  33
BRANCH   4  39
ATOM     39  O   UNL     1      59.446 168.563  41.694  1.00  0.00    -0.387 OA
ATOM     40  H   UNL     1      59.356 168.031  42.505  1.00  0.00     0.211 HD
ENDBRANCH   4  39
TORSDOF 12
ENDMDL
MODEL 8
REMARK VINA RESULT:    -5.845      3.504      7.635
REMARK INTER + INTRA:          -9.804
REMARK INTER:                  -7.700
REMARK INTRA:                  -2.104
REMARK UNBOUND:                -1.055
REMARK SMILES O=c1c(O[C@@H]2O[C@H]([C@H](O)CO)[C@H](O)[C@H]2O)c(-c2ccc([O-])c(O)c2)oc2cc(O)cc(O)c12
REMARK SMILES IDX 5 1 6 2 7 3 12 4 14 5 4 6 3 7 1 8 2 9 33 10 16 11 31 12
REMARK SMILES IDX 26 13 25 14 30 15 27 16 28 17 17 18 18 19 24 20 19 21 22 22
REMARK SMILES IDX 20 23 21 24 23 25 32 27 29 29 15 31 8 33 9 34 10 36 11 37
REMARK SMILES IDX 13 39
REMARK H PARENT 23 26 32 28 29 30 15 32 9 35 11 38 13 40
ROOT
ATOM      1  C   UNL     1      59.758 160.700  42.053  1.00  0.00     0.339 C 
ATOM      2  O   UNL     1      60.955 161.482  42.224  1.00  0.00    -0.332 OA
ATOM      3  C   UNL     1      62.092 160.634  41.949  1.00  0.00     0.185 C 
ATOM      4  C   UNL     1      61.609 159.248  42.383  1.00  0.00     0.181 C 
ATOM      5  C   UNL     1      60.180 159.237  41.877  1.00  0.00     0.214 C 
ENDROOT
BRANCH   1   6
ATOM      6  O   UNL     1      59.069 161.085  40.863  1.00  0.00    -0.454 OA
BRANCH   6   7
ATOM      7  C   UNL     1      57.834 161.660  41.086  1.00  0.00     0.214 A 
ATOM      8  O   UNL     1      56.728 159.565  41.340  1.00  0.00    -0.285 OA
ATOM      9  C   UNL     1      56.652 160.794  41.325  1.00  0.00     0.239 A 
ATOM     10  C   UNL     1      55.364 161.469  41.540  1.00  0.00     0.111 A 
ATOM     11  C   UNL     1      57.634 162.989  41.003  1.00  0.00     0.180 A 
ATOM     12  C   UNL     1      54.192 160.751  41.807  1.00  0.00     0.134 A 
ATOM     13  C   UNL     1      55.322 162.861  41.472  1.00  0.00     0.146 A 
ATOM     14  O   UNL     1      56.427 163.630  41.204  1.00  0.00    -0.452 OA
ATOM     15  C   UNL     1      52.987 161.420  42.012  1.00  0.00     0.093 A 
ATOM     16  C   UNL     1      54.119 163.536  41.675  1.00  0.00     0.094 A 
ATOM     17  C   UNL     1      52.962 162.810  41.944  1.00  0.00     0.123 A 
BRANCH  11  18
ATOM     18  C   UNL     1      58.756 163.890  40.706  1.00  0.00     0.025 A 
ATOM     19  C   UNL     1      59.414 164.566  41.741  1.00  0.00     0.012 A 
ATOM     20  C   UNL     1      59.116 164.159  39.389  1.00  0.00     0.057 A 
ATOM     21  C   UNL     1      60.369 165.551  41.454  1.00  0.00    -0.004 A 
ATOM     22  C   UNL     1      60.063 165.151  39.144  1.00  0.00     0.108 A 
ATOM     23  C   UNL     1      60.705 165.918  40.142  1.00  0.00    -0.066 A 
ATOM     24  O   UNL     1      61.483 166.893  39.861  1.00  0.00    -0.870 OA
BRANCH  22  25
ATOM     25  O   UNL     1      60.377 165.463  37.841  1.00  0.00    -0.509 OA
ATOM     26  H   UNL     1      59.817 166.274  37.752  1.00  0.00     0.293 HD
ENDBRANCH  22  25
ENDBRANCH  11  18
BRANCH  12  27
ATOM     27  O   UNL     1      54.154 159.384  41.884  1.00  0.00    -0.507 OA
ATOM     28  H   UNL     1      54.809 159.097  42.558  1.00  0.00     0.293 HD
ENDBRANCH  12  27
BRANCH  17  29
ATOM     29  O   UNL     1      51.805 163.506  42.136  1.00  0.00    -0.508 OA
ATOM     30  H   UNL     1      51.393 163.673  41.272  1.00  0.00     0.293 HD
ENDBRANCH  17  29
ENDBRANCH   6   7
ENDBRANCH   1   6
BRANCH   5  31
ATOM     31  O   UNL     1      59.370 158.320  42.622  1.00  0.00    -0.384 OA
ATOM     32  H   UNL     1      59.130 158.784  43.454  1.00  0.00     0.211 HD
ENDBRANCH   5  31
BRANCH   3  33
ATOM     33  C   UNL     1      62.536 160.789  40.480  1.00  0.00     0.171 C 
BRANCH  33  34
ATOM     34  O   UNL     1      63.910 160.409  40.310  1.00  0.00    -0.388 OA
ATOM     35  H   UNL     1      63.908 159.923  39.457  1.00  0.00     0.211 HD
ENDBRANCH  33  34
BRANCH  33  36
ATOM     36  C   UNL     1      62.391 162.239  39.994  1.00  0.00     0.190 C 
BRANCH  36  37
ATOM     37  O   UNL     1      63.023 163.103  40.947  1.00  0.00    -0.394 OA
ATOM     38  H   UNL     1      63.882 162.660  41.166  1.00  0.00     0.210 HD
ENDBRANCH  36  37
ENDBRANCH  33  36
ENDBRANCH   3  33
BRANCH   4  39
ATOM     39  O   UNL     1      62.344 158.132  41.915  1.00  0.00    -0.387 OA
ATOM     40  H   UNL     1      63.191 158.143  42.396  1.00  0.00     0.211 HD
ENDBRANCH   4  39
TORSDOF 12
ENDMDL
MODEL 9
REMARK VINA RESULT:    -5.786      2.668      6.001
REMARK INTER + INTRA:          -9.717
REMARK INTER:                  -7.660
REMARK INTRA:                  -2.057
REMARK UNBOUND:                -1.055
REMARK SMILES O=c1c(O[C@@H]2O[C@H]([C@H](O)CO)[C@H](O)[C@H]2O)c(-c2ccc([O-])c(O)c2)oc2cc(O)cc(O)c12
REMARK SMILES IDX 5 1 6 2 7 3 12 4 14 5 4 6 3 7 1 8 2 9 33 10 16 11 31 12
REMARK SMILES IDX 26 13 25 14 30 15 27 16 28 17 17 18 18 19 24 20 19 21 22 22
REMARK SMILES IDX 20 23 21 24 23 25 32 27 29 29 15 31 8 33 9 34 10 36 11 37
REMARK SMILES IDX 13 39
REMARK H PARENT 23 26 32 28 29 30 15 32 9 35 11 38 13 40
ROOT
ATOM      1  C   UNL     1      54.825 163.507  42.251  1.00  0.00     0.339 C 
ATOM      2  O   UNL     1      56.216 163.550  42.622  1.00  0.00    -0.332 OA
ATOM      3  C   UNL     1      56.829 162.304  42.222  1.00  0.00     0.185 C 
ATOM      4  C   UNL     1      55.685 161.295  42.345  1.00  0.00     0.181 C 
ATOM      5  C   UNL     1      54.509 162.078  41.794  1.00  0.00     0.214 C 
ENDROOT
BRANCH   1   6
ATOM      6  O   UNL     1      54.573 164.369  41.140  1.00  0.00    -0.454 OA
BRANCH   6   7
ATOM      7  C   UNL     1      53.551 165.273  41.347  1.00  0.00     0.214 A 
ATOM      8  O   UNL     1      51.839 163.629  41.130  1.00  0.00    -0.285 OA
ATOM      9  C   UNL     1      52.141 164.808  41.322  1.00  0.00     0.239 A 
ATOM     10  C   UNL     1      51.100 165.824  41.534  1.00  0.00     0.111 A 
ATOM     11  C   UNL     1      53.775 166.594  41.479  1.00  0.00     0.180 A 
ATOM     12  C   UNL     1      49.741 165.490  41.565  1.00  0.00     0.134 A 
ATOM     13  C   UNL     1      51.491 167.151  41.707  1.00  0.00     0.146 A 
ATOM     14  O   UNL     1      52.803 167.554  41.679  1.00  0.00    -0.452 OA
ATOM     15  C   UNL     1      48.778 166.475  41.773  1.00  0.00     0.093 A 
ATOM     16  C   UNL     1      50.531 168.142  41.914  1.00  0.00     0.094 A 
ATOM     17  C   UNL     1      49.183 167.796  41.946  1.00  0.00     0.123 A 
BRANCH  11  18
ATOM     18  C   UNL     1      55.147 167.120  41.447  1.00  0.00     0.025 A 
ATOM     19  C   UNL     1      55.944 167.090  42.598  1.00  0.00     0.012 A 
ATOM     20  C   UNL     1      55.639 167.741  40.303  1.00  0.00     0.057 A 
ATOM     21  C   UNL     1      57.187 167.738  42.622  1.00  0.00    -0.004 A 
ATOM     22  C   UNL     1      56.873 168.382  40.369  1.00  0.00     0.108 A 
ATOM     23  C   UNL     1      57.687 168.450  41.521  1.00  0.00    -0.066 A 
ATOM     24  O   UNL     1      58.760 169.145  41.562  1.00  0.00    -0.870 OA
BRANCH  22  25
ATOM     25  O   UNL     1      57.335 169.051  39.258  1.00  0.00    -0.509 OA
ATOM     26  H   UNL     1      57.004 168.423  38.568  1.00  0.00     0.293 HD
ENDBRANCH  22  25
ENDBRANCH  11  18
BRANCH  12  27
ATOM     27  O   UNL     1      49.282 164.210  41.398  1.00  0.00    -0.507 OA
ATOM     28  H   UNL     1      49.097 163.833  42.286  1.00  0.00     0.293 HD
ENDBRANCH  12  27
BRANCH  17  29
ATOM     29  O   UNL     1      48.276 168.793  42.152  1.00  0.00    -0.508 OA
ATOM     30  H   UNL     1      48.670 169.637  41.876  1.00  0.00     0.293 HD
ENDBRANCH  17  29
ENDBRANCH   6   7
ENDBRANCH   1   6
BRANCH   5  31
ATOM     31  O   UNL     1      53.267 161.582  42.305  1.00  0.00    -0.384 OA
ATOM     32  H   UNL     1      52.823 161.134  41.553  1.00  0.00     0.211 HD
ENDBRANCH   5  31
BRANCH   3  33
ATOM     33  C   UNL     1      57.484 162.449  40.833  1.00  0.00     0.171 C 
BRANCH  33  34
ATOM     34  O   UNL     1      58.258 161.287  40.500  1.00  0.00    -0.388 OA
ATOM     35  H   UNL     1      58.441 161.402  39.542  1.00  0.00     0.211 HD
ENDBRANCH  33  34
BRANCH  33  36
ATOM     36  C   UNL     1      58.423 163.664  40.774  1.00  0.00     0.190 C 
BRANCH  36  37
ATOM     37  O   UNL     1      57.645 164.825  40.459  1.00  0.00    -0.394 OA
ATOM     38  H   UNL     1      57.080 164.555  39.690  1.00  0.00     0.210 HD
ENDBRANCH  36  37
ENDBRANCH  33  36
ENDBRANCH   3  33
BRANCH   4  39
ATOM     39  O   UNL     1      55.846 160.052  41.685  1.00  0.00    -0.387 OA
ATOM     40  H   UNL     1      55.802 160.242  40.731  1.00  0.00     0.211 HD
ENDBRANCH   4  39
TORSDOF 12
ENDMDL
