MODEL 1
REMARK VINA RESULT:   -10.046      0.000      0.000
REMARK INTER + INTRA:         -14.809
REMARK INTER:                 -14.157
REMARK INTRA:                  -0.653
REMARK UNBOUND:                -0.653
REMARK SMILES C[C@H]([NH2+]Cc1ccc(OCc2cccc(F)c2)cc1)C(N)=O
REMARK SMILES IDX 5 1 6 2 7 3 8 4 18 5 19 6 4 7 3 8 2 11 1 12 20 13 21 14
REMARK SMILES IDX 22 15 9 18 10 19 11 20 12 21 17 22 13 23 15 24 14 25 16 26
REMARK H PARENT 3 9 3 10 21 16 21 17
ROOT
ATOM      1  C   UNL     1      52.422 154.625  27.249  1.00  0.00     0.006 A 
ATOM      2  C   UNL     1      51.751 154.461  28.468  1.00  0.00     0.013 A 
ATOM      3  C   UNL     1      51.580 155.549  29.327  1.00  0.00     0.047 A 
ATOM      4  C   UNL     1      52.077 156.811  28.996  1.00  0.00     0.119 A 
ATOM      5  C   UNL     1      52.751 156.977  27.789  1.00  0.00     0.047 A 
ATOM      6  C   UNL     1      52.926 155.891  26.922  1.00  0.00     0.013 A 
ENDROOT
BRANCH   1   7
ATOM      7  C   UNL     1      52.642 153.453  26.337  1.00  0.00     0.297 C 
BRANCH   7   8
ATOM      8  N   UNL     1      53.934 152.796  26.631  1.00  0.00    -0.333 N 
ATOM      9  H   UNL     1      54.543 153.419  27.178  1.00  0.00     0.347 HD
ATOM     10  H   UNL     1      53.772 152.006  27.284  1.00  0.00     0.347 HD
BRANCH   8  11
ATOM     11  C   UNL     1      54.688 152.212  25.453  1.00  0.00     0.269 C 
ATOM     12  C   UNL     1      53.960 150.968  24.974  1.00  0.00     0.086 C 
BRANCH  11  13
ATOM     13  C   UNL     1      54.782 153.300  24.369  1.00  0.00     0.275 C 
ATOM     14  N   UNL     1      54.264 153.054  23.141  1.00  0.00    -0.365 N 
ATOM     15  O   UNL     1      55.356 154.358  24.631  1.00  0.00    -0.268 OA
ATOM     16  H   UNL     1      54.361 153.777  22.432  1.00  0.00     0.159 HD
ATOM     17  H   UNL     1      53.846 152.183  22.836  1.00  0.00     0.159 HD
ENDBRANCH  11  13
ENDBRANCH   8  11
ENDBRANCH   7   8
ENDBRANCH   1   7
BRANCH   4  18
ATOM     18  O   UNL     1      51.821 157.779  29.925  1.00  0.00    -0.489 OA
BRANCH  18  19
ATOM     19  C   UNL     1      51.340 159.054  29.490  1.00  0.00     0.265 C 
BRANCH  19  20
ATOM     20  C   UNL     1      50.112 159.512  30.244  1.00  0.00    -0.008 A 
ATOM     21  C   UNL     1      49.117 158.601  30.632  1.00  0.00     0.007 A 
ATOM     22  C   UNL     1      49.975 160.857  30.616  1.00  0.00     0.046 A 
ATOM     23  C   UNL     1      47.996 159.028  31.350  1.00  0.00     0.003 A 
ATOM     24  C   UNL     1      48.854 161.272  31.328  1.00  0.00     0.123 A 
ATOM     25  C   UNL     1      47.863 160.371  31.696  1.00  0.00     0.039 A 
ATOM     26  F   UNL     1      48.730 162.562  31.661  1.00  0.00    -0.207 F 
ENDBRANCH  19  20
ENDBRANCH  18  19
ENDBRANCH   4  18
TORSDOF 7
ENDMDL
MODEL 2
REMARK VINA RESULT:    -9.824      0.915      1.323
REMARK INTER + INTRA:         -14.497
REMARK INTER:                 -13.983
REMARK INTRA:                  -0.514
REMARK UNBOUND:                -0.653
REMARK SMILES C[C@H]([NH2+]Cc1ccc(OCc2cccc(F)c2)cc1)C(N)=O
REMARK SMILES IDX 5 1 6 2 7 3 8 4 18 5 19 6 4 7 3 8 2 11 1 12 20 13 21 14
REMARK SMILES IDX 22 15 9 18 10 19 11 20 12 21 17 22 13 23 15 24 14 25 16 26
REMARK H PARENT 3 9 3 10 21 16 21 17
ROOT
ATOM      1  C   UNL     1      52.354 154.707  27.199  1.00  0.00     0.006 A 
ATOM      2  C   UNL     1      51.600 154.423  28.346  1.00  0.00     0.013 A 
ATOM      3  C   UNL     1      51.344 155.427  29.282  1.00  0.00     0.047 A 
ATOM      4  C   UNL     1      51.834 156.722  29.101  1.00  0.00     0.119 A 
ATOM      5  C   UNL     1      52.588 157.006  27.965  1.00  0.00     0.047 A 
ATOM      6  C   UNL     1      52.851 156.005  27.022  1.00  0.00     0.013 A 
ENDROOT
BRANCH   1   7
ATOM      7  C   UNL     1      52.665 153.625  26.206  1.00  0.00     0.297 C 
BRANCH   7   8
ATOM      8  N   UNL     1      53.917 152.925  26.570  1.00  0.00    -0.333 N 
ATOM      9  H   UNL     1      54.506 153.520  27.167  1.00  0.00     0.347 HD
ATOM     10  H   UNL     1      53.691 152.128  27.196  1.00  0.00     0.347 HD
BRANCH   8  11
ATOM     11  C   UNL     1      54.729 152.339  25.432  1.00  0.00     0.269 C 
ATOM     12  C   UNL     1      54.046 151.074  24.944  1.00  0.00     0.086 C 
BRANCH  11  13
ATOM     13  C   UNL     1      54.844 153.414  24.337  1.00  0.00     0.275 C 
ATOM     14  N   UNL     1      54.346 153.153  23.103  1.00  0.00    -0.365 N 
ATOM     15  O   UNL     1      55.417 154.473  24.594  1.00  0.00    -0.268 OA
ATOM     16  H   UNL     1      54.457 153.867  22.387  1.00  0.00     0.159 HD
ATOM     17  H   UNL     1      53.931 152.279  22.803  1.00  0.00     0.159 HD
ENDBRANCH  11  13
ENDBRANCH   8  11
ENDBRANCH   7   8
ENDBRANCH   1   7
BRANCH   4  18
ATOM     18  O   UNL     1      51.489 157.599  30.089  1.00  0.00    -0.489 OA
BRANCH  18  19
ATOM     19  C   UNL     1      51.357 158.988  29.775  1.00  0.00     0.265 C 
BRANCH  19  20
ATOM     20  C   UNL     1      50.386 159.710  30.682  1.00  0.00    -0.008 A 
ATOM     21  C   UNL     1      50.803 160.789  31.479  1.00  0.00     0.007 A 
ATOM     22  C   UNL     1      49.033 159.343  30.701  1.00  0.00     0.046 A 
ATOM     23  C   UNL     1      49.895 161.467  32.297  1.00  0.00     0.003 A 
ATOM     24  C   UNL     1      48.138 160.023  31.521  1.00  0.00     0.123 A 
ATOM     25  C   UNL     1      48.556 161.079  32.320  1.00  0.00     0.039 A 
ATOM     26  F   UNL     1      46.853 159.649  31.540  1.00  0.00    -0.207 F 
ENDBRANCH  19  20
ENDBRANCH  18  19
ENDBRANCH   4  18
TORSDOF 7
ENDMDL
MODEL 3
REMARK VINA RESULT:    -9.694      4.755      9.055
REMARK INTER + INTRA:         -14.313
REMARK INTER:                 -13.682
REMARK INTRA:                  -0.631
REMARK UNBOUND:                -0.653
REMARK SMILES C[C@H]([NH2+]Cc1ccc(OCc2cccc(F)c2)cc1)C(N)=O
REMARK SMILES IDX 5 1 6 2 7 3 8 4 18 5 19 6 4 7 3 8 2 11 1 12 20 13 21 14
REMARK SMILES IDX 22 15 9 18 10 19 11 20 12 21 17 22 13 23 15 24 14 25 16 26
REMARK H PARENT 3 9 3 10 21 16 21 17
ROOT
ATOM      1  C   UNL     1      51.329 157.829  29.574  1.00  0.00     0.006 A 
ATOM      2  C   UNL     1      52.515 157.561  28.879  1.00  0.00     0.013 A 
ATOM      3  C   UNL     1      52.821 156.254  28.491  1.00  0.00     0.047 A 
ATOM      4  C   UNL     1      51.962 155.195  28.791  1.00  0.00     0.119 A 
ATOM      5  C   UNL     1      50.785 155.457  29.488  1.00  0.00     0.047 A 
ATOM      6  C   UNL     1      50.471 156.763  29.881  1.00  0.00     0.013 A 
ENDROOT
BRANCH   1   7
ATOM      7  C   UNL     1      51.010 159.224  30.027  1.00  0.00     0.297 C 
BRANCH   7   8
ATOM      8  N   UNL     1      52.250 160.003  30.236  1.00  0.00    -0.333 N 
ATOM      9  H   UNL     1      52.903 159.490  30.842  1.00  0.00     0.347 HD
ATOM     10  H   UNL     1      52.770 160.061  29.339  1.00  0.00     0.347 HD
BRANCH   8  11
ATOM     11  C   UNL     1      52.088 161.432  30.714  1.00  0.00     0.269 C 
ATOM     12  C   UNL     1      51.275 161.430  31.996  1.00  0.00     0.086 C 
BRANCH  11  13
ATOM     13  C   UNL     1      53.495 162.026  30.903  1.00  0.00     0.275 C 
ATOM     14  N   UNL     1      54.115 161.884  32.101  1.00  0.00    -0.365 N 
ATOM     15  O   UNL     1      54.013 162.648  29.975  1.00  0.00    -0.268 OA
ATOM     16  H   UNL     1      55.033 162.308  32.212  1.00  0.00     0.159 HD
ATOM     17  H   UNL     1      53.719 161.452  32.927  1.00  0.00     0.159 HD
ENDBRANCH  11  13
ENDBRANCH   8  11
ENDBRANCH   7   8
ENDBRANCH   1   7
BRANCH   4  18
ATOM     18  O   UNL     1      52.385 153.980  28.336  1.00  0.00    -0.489 OA
BRANCH  18  19
ATOM     19  C   UNL     1      51.702 153.370  27.237  1.00  0.00     0.265 C 
BRANCH  19  20
ATOM     20  C   UNL     1      52.597 153.132  26.042  1.00  0.00    -0.008 A 
ATOM     21  C   UNL     1      52.971 154.186  25.193  1.00  0.00     0.007 A 
ATOM     22  C   UNL     1      53.112 151.852  25.792  1.00  0.00     0.046 A 
ATOM     23  C   UNL     1      53.818 153.962  24.105  1.00  0.00     0.003 A 
ATOM     24  C   UNL     1      53.952 151.639  24.704  1.00  0.00     0.123 A 
ATOM     25  C   UNL     1      54.308 152.681  23.857  1.00  0.00     0.039 A 
ATOM     26  F   UNL     1      54.423 150.408  24.469  1.00  0.00    -0.207 F 
ENDBRANCH  19  20
ENDBRANCH  18  19
ENDBRANCH   4  18
TORSDOF 7
ENDMDL
MODEL 4
REMARK VINA RESULT:    -9.444      1.692      2.117
REMARK INTER + INTRA:         -13.961
REMARK INTER:                 -13.249
REMARK INTRA:                  -0.712
REMARK UNBOUND:                -0.653
REMARK SMILES C[C@H]([NH2+]Cc1ccc(OCc2cccc(F)c2)cc1)C(N)=O
REMARK SMILES IDX 5 1 6 2 7 3 8 4 18 5 19 6 4 7 3 8 2 11 1 12 20 13 21 14
REMARK SMILES IDX 22 15 9 18 10 19 11 20 12 21 17 22 13 23 15 24 14 25 16 26
REMARK H PARENT 3 9 3 10 21 16 21 17
ROOT
ATOM      1  C   UNL     1      52.909 155.369  26.150  1.00  0.00     0.006 A 
ATOM      2  C   UNL     1      52.095 154.491  26.877  1.00  0.00     0.013 A 
ATOM      3  C   UNL     1      51.585 154.874  28.120  1.00  0.00     0.047 A 
ATOM      4  C   UNL     1      51.878 156.126  28.663  1.00  0.00     0.119 A 
ATOM      5  C   UNL     1      52.693 156.999  27.946  1.00  0.00     0.047 A 
ATOM      6  C   UNL     1      53.209 156.624  26.700  1.00  0.00     0.013 A 
ENDROOT
BRANCH   1   7
ATOM      7  C   UNL     1      53.491 154.953  24.831  1.00  0.00     0.297 C 
BRANCH   7   8
ATOM      8  N   UNL     1      53.121 153.555  24.513  1.00  0.00    -0.333 N 
ATOM      9  H   UNL     1      52.411 153.209  25.171  1.00  0.00     0.347 HD
ATOM     10  H   UNL     1      52.619 153.535  23.605  1.00  0.00     0.347 HD
BRANCH   8  11
ATOM     11  C   UNL     1      54.257 152.560  24.381  1.00  0.00     0.269 C 
ATOM     12  C   UNL     1      55.517 153.176  24.964  1.00  0.00     0.086 C 
BRANCH  11  13
ATOM     13  C   UNL     1      53.836 151.269  25.105  1.00  0.00     0.275 C 
ATOM     14  N   UNL     1      54.231 150.073  24.603  1.00  0.00    -0.365 N 
ATOM     15  O   UNL     1      53.120 151.349  26.105  1.00  0.00    -0.268 OA
ATOM     16  H   UNL     1      53.918 149.232  25.083  1.00  0.00     0.159 HD
ATOM     17  H   UNL     1      54.754 149.932  23.748  1.00  0.00     0.159 HD
ENDBRANCH  11  13
ENDBRANCH   8  11
ENDBRANCH   7   8
ENDBRANCH   1   7
BRANCH   4  18
ATOM     18  O   UNL     1      51.298 156.365  29.875  1.00  0.00    -0.489 OA
BRANCH  18  19
ATOM     19  C   UNL     1      49.929 156.778  29.924  1.00  0.00     0.265 C 
BRANCH  19  20
ATOM     20  C   UNL     1      49.764 158.247  30.242  1.00  0.00    -0.008 A 
ATOM     21  C   UNL     1      48.512 158.776  30.597  1.00  0.00     0.007 A 
ATOM     22  C   UNL     1      50.878 159.098  30.238  1.00  0.00     0.046 A 
ATOM     23  C   UNL     1      48.372 160.130  30.913  1.00  0.00     0.003 A 
ATOM     24  C   UNL     1      50.727 160.445  30.552  1.00  0.00     0.123 A 
ATOM     25  C   UNL     1      49.485 160.969  30.887  1.00  0.00     0.039 A 
ATOM     26  F   UNL     1      51.797 161.248  30.527  1.00  0.00    -0.207 F 
ENDBRANCH  19  20
ENDBRANCH  18  19
ENDBRANCH   4  18
TORSDOF 7
ENDMDL
MODEL 5
REMARK VINA RESULT:    -9.377      4.508      9.271
REMARK INTER + INTRA:         -13.867
REMARK INTER:                 -13.207
REMARK INTRA:                  -0.660
REMARK UNBOUND:                -0.653
REMARK SMILES C[C@H]([NH2+]Cc1ccc(OCc2cccc(F)c2)cc1)C(N)=O
REMARK SMILES IDX 5 1 6 2 7 3 8 4 18 5 19 6 4 7 3 8 2 11 1 12 20 13 21 14
REMARK SMILES IDX 22 15 9 18 10 19 11 20 12 21 17 22 13 23 15 24 14 25 16 26
REMARK H PARENT 3 9 3 10 21 16 21 17
ROOT
ATOM      1  C   UNL     1      50.411 157.906  30.050  1.00  0.00     0.006 A 
ATOM      2  C   UNL     1      51.602 158.423  29.524  1.00  0.00     0.013 A 
ATOM      3  C   UNL     1      52.475 157.593  28.817  1.00  0.00     0.047 A 
ATOM      4  C   UNL     1      52.185 156.240  28.627  1.00  0.00     0.119 A 
ATOM      5  C   UNL     1      51.006 155.721  29.155  1.00  0.00     0.047 A 
ATOM      6  C   UNL     1      50.125 156.546  29.865  1.00  0.00     0.013 A 
ENDROOT
BRANCH   1   7
ATOM      7  C   UNL     1      49.485 158.783  30.842  1.00  0.00     0.297 C 
BRANCH   7   8
ATOM      8  N   UNL     1      49.600 160.193  30.408  1.00  0.00    -0.333 N 
ATOM      9  H   UNL     1      50.558 160.400  30.098  1.00  0.00     0.347 HD
ATOM     10  H   UNL     1      49.046 160.327  29.541  1.00  0.00     0.347 HD
BRANCH   8  11
ATOM     11  C   UNL     1      49.113 161.249  31.380  1.00  0.00     0.269 C 
ATOM     12  C   UNL     1      47.813 160.775  32.007  1.00  0.00     0.086 C 
BRANCH  11  13
ATOM     13  C   UNL     1      50.224 161.480  32.418  1.00  0.00     0.275 C 
ATOM     14  N   UNL     1      51.510 161.576  31.998  1.00  0.00    -0.365 N 
ATOM     15  O   UNL     1      49.926 161.537  33.612  1.00  0.00    -0.268 OA
ATOM     16  H   UNL     1      52.231 161.702  32.705  1.00  0.00     0.159 HD
ATOM     17  H   UNL     1      51.833 161.464  31.044  1.00  0.00     0.159 HD
ENDBRANCH  11  13
ENDBRANCH   8  11
ENDBRANCH   7   8
ENDBRANCH   1   7
BRANCH   4  18
ATOM     18  O   UNL     1      53.122 155.559  27.905  1.00  0.00    -0.489 OA
BRANCH  18  19
ATOM     19  C   UNL     1      53.209 155.776  26.494  1.00  0.00     0.265 C 
BRANCH  19  20
ATOM     20  C   UNL     1      53.482 154.509  25.715  1.00  0.00    -0.008 A 
ATOM     21  C   UNL     1      54.167 154.544  24.490  1.00  0.00     0.007 A 
ATOM     22  C   UNL     1      53.096 153.266  26.236  1.00  0.00     0.046 A 
ATOM     23  C   UNL     1      54.436 153.366  23.787  1.00  0.00     0.003 A 
ATOM     24  C   UNL     1      53.367 152.099  25.527  1.00  0.00     0.123 A 
ATOM     25  C   UNL     1      54.031 152.138  24.307  1.00  0.00     0.039 A 
ATOM     26  F   UNL     1      52.978 150.922  26.030  1.00  0.00    -0.207 F 
ENDBRANCH  19  20
ENDBRANCH  18  19
ENDBRANCH   4  18
TORSDOF 7
ENDMDL
MODEL 6
REMARK VINA RESULT:    -9.216      1.889      2.353
REMARK INTER + INTRA:         -13.639
REMARK INTER:                 -13.122
REMARK INTRA:                  -0.517
REMARK UNBOUND:                -0.653
REMARK SMILES C[C@H]([NH2+]Cc1ccc(OCc2cccc(F)c2)cc1)C(N)=O
REMARK SMILES IDX 5 1 6 2 7 3 8 4 18 5 19 6 4 7 3 8 2 11 1 12 20 13 21 14
REMARK SMILES IDX 22 15 9 18 10 19 11 20 12 21 17 22 13 23 15 24 14 25 16 26
REMARK H PARENT 3 9 3 10 21 16 21 17
ROOT
ATOM      1  C   UNL     1      52.803 155.340  27.056  1.00  0.00     0.006 A 
ATOM      2  C   UNL     1      51.974 154.858  28.078  1.00  0.00     0.013 A 
ATOM      3  C   UNL     1      51.512 155.723  29.073  1.00  0.00     0.047 A 
ATOM      4  C   UNL     1      51.869 157.073  29.075  1.00  0.00     0.119 A 
ATOM      5  C   UNL     1      52.698 157.554  28.065  1.00  0.00     0.047 A 
ATOM      6  C   UNL     1      53.166 156.694  27.064  1.00  0.00     0.013 A 
ENDROOT
BRANCH   1   7
ATOM      7  C   UNL     1      53.333 154.411  26.004  1.00  0.00     0.297 C 
BRANCH   7   8
ATOM      8  N   UNL     1      53.553 153.058  26.563  1.00  0.00    -0.333 N 
ATOM      9  H   UNL     1      54.553 152.898  26.742  1.00  0.00     0.347 HD
ATOM     10  H   UNL     1      53.141 153.013  27.514  1.00  0.00     0.347 HD
BRANCH   8  11
ATOM     11  C   UNL     1      52.955 151.896  25.796  1.00  0.00     0.269 C 
ATOM     12  C   UNL     1      54.075 151.136  25.106  1.00  0.00     0.086 C 
BRANCH  11  13
ATOM     13  C   UNL     1      52.176 151.025  26.797  1.00  0.00     0.275 C 
ATOM     14  N   UNL     1      51.924 149.729  26.488  1.00  0.00    -0.365 N 
ATOM     15  O   UNL     1      51.766 151.534  27.842  1.00  0.00    -0.268 OA
ATOM     16  H   UNL     1      51.384 149.180  27.153  1.00  0.00     0.159 HD
ATOM     17  H   UNL     1      52.165 149.269  25.619  1.00  0.00     0.159 HD
ENDBRANCH  11  13
ENDBRANCH   8  11
ENDBRANCH   7   8
ENDBRANCH   1   7
BRANCH   4  18
ATOM     18  O   UNL     1      51.330 157.796  30.100  1.00  0.00    -0.489 OA
BRANCH  18  19
ATOM     19  C   UNL     1      51.085 159.194  29.914  1.00  0.00     0.265 C 
BRANCH  19  20
ATOM     20  C   UNL     1      50.073 159.753  30.889  1.00  0.00    -0.008 A 
ATOM     21  C   UNL     1      50.471 160.565  31.962  1.00  0.00     0.007 A 
ATOM     22  C   UNL     1      48.706 159.507  30.701  1.00  0.00     0.046 A 
ATOM     23  C   UNL     1      49.528 161.098  32.845  1.00  0.00     0.003 A 
ATOM     24  C   UNL     1      47.775 160.040  31.587  1.00  0.00     0.123 A 
ATOM     25  C   UNL     1      48.173 160.830  32.658  1.00  0.00     0.039 A 
ATOM     26  F   UNL     1      46.474 159.783  31.404  1.00  0.00    -0.207 F 
ENDBRANCH  19  20
ENDBRANCH  18  19
ENDBRANCH   4  18
TORSDOF 7
ENDMDL
MODEL 7
REMARK VINA RESULT:    -8.933      1.520      1.902
REMARK INTER + INTRA:         -13.242
REMARK INTER:                 -12.670
REMARK INTRA:                  -0.572
REMARK UNBOUND:                -0.653
REMARK SMILES C[C@H]([NH2+]Cc1ccc(OCc2cccc(F)c2)cc1)C(N)=O
REMARK SMILES IDX 5 1 6 2 7 3 8 4 18 5 19 6 4 7 3 8 2 11 1 12 20 13 21 14
REMARK SMILES IDX 22 15 9 18 10 19 11 20 12 21 17 22 13 23 15 24 14 25 16 26
REMARK H PARENT 3 9 3 10 21 16 21 17
ROOT
ATOM      1  C   UNL     1      52.125 155.036  27.782  1.00  0.00     0.006 A 
ATOM      2  C   UNL     1      51.057 154.936  28.684  1.00  0.00     0.013 A 
ATOM      3  C   UNL     1      50.722 156.021  29.497  1.00  0.00     0.047 A 
ATOM      4  C   UNL     1      51.442 157.216  29.436  1.00  0.00     0.119 A 
ATOM      5  C   UNL     1      52.508 157.316  28.546  1.00  0.00     0.047 A 
ATOM      6  C   UNL     1      52.851 156.234  27.727  1.00  0.00     0.013 A 
ENDROOT
BRANCH   1   7
ATOM      7  C   UNL     1      52.515 153.863  26.930  1.00  0.00     0.297 C 
BRANCH   7   8
ATOM      8  N   UNL     1      53.850 154.075  26.328  1.00  0.00    -0.333 N 
ATOM      9  H   UNL     1      54.358 154.819  26.823  1.00  0.00     0.347 HD
ATOM     10  H   UNL     1      54.439 153.239  26.506  1.00  0.00     0.347 HD
BRANCH   8  11
ATOM     11  C   UNL     1      53.896 154.302  24.830  1.00  0.00     0.269 C 
ATOM     12  C   UNL     1      54.754 155.523  24.547  1.00  0.00     0.086 C 
BRANCH  11  13
ATOM     13  C   UNL     1      54.449 153.022  24.178  1.00  0.00     0.275 C 
ATOM     14  N   UNL     1      55.414 152.319  24.821  1.00  0.00    -0.365 N 
ATOM     15  O   UNL     1      54.029 152.685  23.071  1.00  0.00    -0.268 OA
ATOM     16  H   UNL     1      55.783 151.492  24.359  1.00  0.00     0.159 HD
ATOM     17  H   UNL     1      55.855 152.579  25.695  1.00  0.00     0.159 HD
ENDBRANCH  11  13
ENDBRANCH   8  11
ENDBRANCH   7   8
ENDBRANCH   1   7
BRANCH   4  18
ATOM     18  O   UNL     1      50.990 158.190  30.278  1.00  0.00    -0.489 OA
BRANCH  18  19
ATOM     19  C   UNL     1      51.028 159.555  29.851  1.00  0.00     0.265 C 
BRANCH  19  20
ATOM     20  C   UNL     1      50.175 160.467  30.702  1.00  0.00    -0.008 A 
ATOM     21  C   UNL     1      48.962 160.986  30.219  1.00  0.00     0.007 A 
ATOM     22  C   UNL     1      50.559 160.767  32.017  1.00  0.00     0.046 A 
ATOM     23  C   UNL     1      48.167 161.809  31.021  1.00  0.00     0.003 A 
ATOM     24  C   UNL     1      49.761 161.590  32.805  1.00  0.00     0.123 A 
ATOM     25  C   UNL     1      48.571 162.115  32.320  1.00  0.00     0.039 A 
ATOM     26  F   UNL     1      50.151 161.880  34.053  1.00  0.00    -0.207 F 
ENDBRANCH  19  20
ENDBRANCH  18  19
ENDBRANCH   4  18
TORSDOF 7
ENDMDL
MODEL 8
REMARK VINA RESULT:    -7.100      3.342      4.785
REMARK INTER + INTRA:         -10.659
REMARK INTER:                  -9.934
REMARK INTRA:                  -0.725
REMARK UNBOUND:                -0.653
REMARK SMILES C[C@H]([NH2+]Cc1ccc(OCc2cccc(F)c2)cc1)C(N)=O
REMARK SMILES IDX 5 1 6 2 7 3 8 4 18 5 19 6 4 7 3 8 2 11 1 12 20 13 21 14
REMARK SMILES IDX 22 15 9 18 10 19 11 20 12 21 17 22 13 23 15 24 14 25 16 26
REMARK H PARENT 3 9 3 10 21 16 21 17
ROOT
ATOM      1  C   UNL     1      50.946 156.874  29.680  1.00  0.00     0.006 A 
ATOM      2  C   UNL     1      49.801 157.472  30.222  1.00  0.00     0.013 A 
ATOM      3  C   UNL     1      49.785 158.843  30.489  1.00  0.00     0.047 A 
ATOM      4  C   UNL     1      50.903 159.639  30.232  1.00  0.00     0.119 A 
ATOM      5  C   UNL     1      52.046 159.046  29.701  1.00  0.00     0.047 A 
ATOM      6  C   UNL     1      52.071 157.673  29.429  1.00  0.00     0.013 A 
ENDROOT
BRANCH   1   7
ATOM      7  C   UNL     1      50.985 155.395  29.423  1.00  0.00     0.297 C 
BRANCH   7   8
ATOM      8  N   UNL     1      52.261 155.009  28.783  1.00  0.00    -0.333 N 
ATOM      9  H   UNL     1      52.957 155.759  28.876  1.00  0.00     0.347 HD
ATOM     10  H   UNL     1      52.690 154.233  29.322  1.00  0.00     0.347 HD
BRANCH   8  11
ATOM     11  C   UNL     1      52.188 154.524  27.348  1.00  0.00     0.269 C 
ATOM     12  C   UNL     1      52.989 155.470  26.471  1.00  0.00     0.086 C 
BRANCH  11  13
ATOM     13  C   UNL     1      52.724 153.082  27.312  1.00  0.00     0.275 C 
ATOM     14  N   UNL     1      53.987 152.859  26.872  1.00  0.00    -0.365 N 
ATOM     15  O   UNL     1      51.982 152.159  27.649  1.00  0.00    -0.268 OA
ATOM     16  H   UNL     1      54.310 151.896  26.831  1.00  0.00     0.159 HD
ATOM     17  H   UNL     1      54.622 153.560  26.511  1.00  0.00     0.159 HD
ENDBRANCH  11  13
ENDBRANCH   8  11
ENDBRANCH   7   8
ENDBRANCH   1   7
BRANCH   4  18
ATOM     18  O   UNL     1      50.735 160.960  30.530  1.00  0.00    -0.489 OA
BRANCH  18  19
ATOM     19  C   UNL     1      51.431 161.518  31.648  1.00  0.00     0.265 C 
BRANCH  19  20
ATOM     20  C   UNL     1      52.880 161.828  31.349  1.00  0.00    -0.008 A 
ATOM     21  C   UNL     1      53.255 162.465  30.155  1.00  0.00     0.007 A 
ATOM     22  C   UNL     1      53.874 161.528  32.291  1.00  0.00     0.046 A 
ATOM     23  C   UNL     1      54.594 162.770  29.896  1.00  0.00     0.003 A 
ATOM     24  C   UNL     1      55.204 161.833  32.022  1.00  0.00     0.123 A 
ATOM     25  C   UNL     1      55.574 162.448  30.834  1.00  0.00     0.039 A 
ATOM     26  F   UNL     1      56.143 161.525  32.926  1.00  0.00    -0.207 F 
ENDBRANCH  19  20
ENDBRANCH  18  19
ENDBRANCH   4  18
TORSDOF 7
ENDMDL
MODEL 9
REMARK VINA RESULT:    -7.057     12.878     14.118
REMARK INTER + INTRA:         -10.597
REMARK INTER:                 -10.076
REMARK INTRA:                  -0.521
REMARK UNBOUND:                -0.653
REMARK SMILES C[C@H]([NH2+]Cc1ccc(OCc2cccc(F)c2)cc1)C(N)=O
REMARK SMILES IDX 5 1 6 2 7 3 8 4 18 5 19 6 4 7 3 8 2 11 1 12 20 13 21 14
REMARK SMILES IDX 22 15 9 18 10 19 11 20 12 21 17 22 13 23 15 24 14 25 16 26
REMARK H PARENT 3 9 3 10 21 16 21 17
ROOT
ATOM      1  C   UNL     1      55.885 161.019  41.610  1.00  0.00     0.006 A 
ATOM      2  C   UNL     1      54.866 160.089  41.851  1.00  0.00     0.013 A 
ATOM      3  C   UNL     1      53.538 160.513  41.947  1.00  0.00     0.047 A 
ATOM      4  C   UNL     1      53.202 161.861  41.814  1.00  0.00     0.119 A 
ATOM      5  C   UNL     1      54.214 162.790  41.581  1.00  0.00     0.047 A 
ATOM      6  C   UNL     1      55.547 162.374  41.483  1.00  0.00     0.013 A 
ENDROOT
BRANCH   1   7
ATOM      7  C   UNL     1      57.318 160.577  41.541  1.00  0.00     0.297 C 
BRANCH   7   8
ATOM      8  N   UNL     1      57.737 160.377  40.135  1.00  0.00    -0.333 N 
ATOM      9  H   UNL     1      56.943 160.069  39.560  1.00  0.00     0.347 HD
ATOM     10  H   UNL     1      57.976 161.297  39.718  1.00  0.00     0.347 HD
BRANCH   8  11
ATOM     11  C   UNL     1      58.944 159.491  39.901  1.00  0.00     0.269 C 
ATOM     12  C   UNL     1      58.870 158.304  40.847  1.00  0.00     0.086 C 
BRANCH  11  13
ATOM     13  C   UNL     1      58.937 159.072  38.420  1.00  0.00     0.275 C 
ATOM     14  N   UNL     1      58.794 160.025  37.466  1.00  0.00    -0.365 N 
ATOM     15  O   UNL     1      59.026 157.877  38.135  1.00  0.00    -0.268 OA
ATOM     16  H   UNL     1      58.766 159.722  36.495  1.00  0.00     0.159 HD
ATOM     17  H   UNL     1      58.642 161.012  37.631  1.00  0.00     0.159 HD
ENDBRANCH  11  13
ENDBRANCH   8  11
ENDBRANCH   7   8
ENDBRANCH   1   7
BRANCH   4  18
ATOM     18  O   UNL     1      51.866 162.122  41.917  1.00  0.00    -0.489 OA
BRANCH  18  19
ATOM     19  C   UNL     1      51.377 163.416  41.553  1.00  0.00     0.265 C 
BRANCH  19  20
ATOM     20  C   UNL     1      49.879 163.450  41.355  1.00  0.00    -0.008 A 
ATOM     21  C   UNL     1      49.143 162.266  41.183  1.00  0.00     0.007 A 
ATOM     22  C   UNL     1      49.191 164.671  41.392  1.00  0.00     0.046 A 
ATOM     23  C   UNL     1      47.755 162.303  41.025  1.00  0.00     0.003 A 
ATOM     24  C   UNL     1      47.809 164.697  41.231  1.00  0.00     0.123 A 
ATOM     25  C   UNL     1      47.086 163.526  41.045  1.00  0.00     0.039 A 
ATOM     26  F   UNL     1      47.169 165.872  41.253  1.00  0.00    -0.207 F 
ENDBRANCH  19  20
ENDBRANCH  18  19
ENDBRANCH   4  18
TORSDOF 7
ENDMDL
