MODEL 1
REMARK VINA RESULT:    -7.755      0.000      0.000
REMARK INTER + INTRA:          -9.655
REMARK INTER:                  -9.568
REMARK INTRA:                  -0.087
REMARK UNBOUND:                -0.087
REMARK SMILES C#CC[N@H+](C)[C@H](C)Cc1ccccc1
REMARK SMILES IDX 4 1 5 2 3 4 2 5 1 6 6 7 7 8 8 9 9 10 10 11 14 12 11 13 13 14
REMARK SMILES IDX 12 15
REMARK H PARENT 4 3
ROOT
ATOM      1  N   UNL     1      53.623 152.590  24.888  1.00  0.00    -0.325 N 
ATOM      2  C   UNL     1      53.959 153.607  23.832  1.00  0.00     0.333 C 
ATOM      3  H   UNL     1      52.900 151.986  24.476  1.00  0.00     0.348 HD
ENDROOT
BRANCH   1   4
ATOM      4  C   UNL     1      54.787 151.653  25.137  1.00  0.00     0.353 C 
ATOM      5  C   UNL     1      54.366 150.281  24.854  1.00  0.00    -0.047 C 
ATOM      6  C   UNL     1      54.023 149.154  24.618  1.00  0.00     0.010 C 
ENDBRANCH   1   4
BRANCH   1   7
ATOM      7  C   UNL     1      53.005 153.164  26.178  1.00  0.00     0.185 C 
ATOM      8  C   UNL     1      52.079 152.104  26.785  1.00  0.00     0.075 C 
BRANCH   7   9
ATOM      9  C   UNL     1      52.290 154.508  25.924  1.00  0.00     0.100 C 
BRANCH   9  10
ATOM     10  C   UNL     1      52.202 155.360  27.167  1.00  0.00    -0.042 A 
ATOM     11  C   UNL     1      52.877 156.587  27.238  1.00  0.00     0.004 A 
ATOM     12  C   UNL     1      51.433 154.940  28.262  1.00  0.00     0.004 A 
ATOM     13  C   UNL     1      52.777 157.380  28.382  1.00  0.00     0.000 A 
ATOM     14  C   UNL     1      51.337 155.737  29.404  1.00  0.00     0.000 A 
ATOM     15  C   UNL     1      52.008 156.956  29.462  1.00  0.00     0.000 A 
ENDBRANCH   9  10
ENDBRANCH   7   9
ENDBRANCH   1   7
TORSDOF 4
ENDMDL
MODEL 2
REMARK VINA RESULT:    -7.572      1.779      6.438
REMARK INTER + INTRA:          -9.429
REMARK INTER:                  -9.347
REMARK INTRA:                  -0.082
REMARK UNBOUND:                -0.087
REMARK SMILES C#CC[N@H+](C)[C@H](C)Cc1ccccc1
REMARK SMILES IDX 4 1 5 2 3 4 2 5 1 6 6 7 7 8 8 9 9 10 10 11 14 12 11 13 13 14
REMARK SMILES IDX 12 15
REMARK H PARENT 4 3
ROOT
ATOM      1  N   UNL     1      52.060 156.280  28.336  1.00  0.00    -0.325 N 
ATOM      2  C   UNL     1      51.499 155.391  29.411  1.00  0.00     0.333 C 
ATOM      3  H   UNL     1      51.248 156.733  27.895  1.00  0.00     0.348 HD
ENDROOT
BRANCH   1   4
ATOM      4  C   UNL     1      52.845 157.431  28.931  1.00  0.00     0.353 C 
ATOM      5  C   UNL     1      51.913 158.395  29.516  1.00  0.00    -0.047 C 
ATOM      6  C   UNL     1      51.149 159.185  30.001  1.00  0.00     0.010 C 
ENDBRANCH   1   4
BRANCH   1   7
ATOM      7  C   UNL     1      52.800 155.550  27.199  1.00  0.00     0.185 C 
ATOM      8  C   UNL     1      53.313 156.596  26.204  1.00  0.00     0.075 C 
BRANCH   7   9
ATOM      9  C   UNL     1      51.914 154.474  26.534  1.00  0.00     0.100 C 
BRANCH   9  10
ATOM     10  C   UNL     1      52.719 153.460  25.759  1.00  0.00    -0.042 A 
ATOM     11  C   UNL     1      52.818 152.136  26.208  1.00  0.00     0.004 A 
ATOM     12  C   UNL     1      53.370 153.828  24.572  1.00  0.00     0.004 A 
ATOM     13  C   UNL     1      53.547 151.196  25.479  1.00  0.00     0.000 A 
ATOM     14  C   UNL     1      54.099 152.885  23.845  1.00  0.00     0.000 A 
ATOM     15  C   UNL     1      54.186 151.570  24.299  1.00  0.00     0.000 A 
ENDBRANCH   9  10
ENDBRANCH   7   9
ENDBRANCH   1   7
TORSDOF 4
ENDMDL
MODEL 3
REMARK VINA RESULT:    -7.445      1.212      2.989
REMARK INTER + INTRA:          -9.273
REMARK INTER:                  -8.819
REMARK INTRA:                  -0.454
REMARK UNBOUND:                -0.087
REMARK SMILES C#CC[N@H+](C)[C@H](C)Cc1ccccc1
REMARK SMILES IDX 4 1 5 2 3 4 2 5 1 6 6 7 7 8 8 9 9 10 10 11 14 12 11 13 13 14
REMARK SMILES IDX 12 15
REMARK H PARENT 4 3
ROOT
ATOM      1  N   UNL     1      54.611 153.389  25.566  1.00  0.00    -0.325 N 
ATOM      2  C   UNL     1      55.463 152.162  25.392  1.00  0.00     0.333 C 
ATOM      3  H   UNL     1      55.187 154.058  26.095  1.00  0.00     0.348 HD
ENDROOT
BRANCH   1   4
ATOM      4  C   UNL     1      54.367 154.080  24.240  1.00  0.00     0.353 C 
ATOM      5  C   UNL     1      54.759 155.484  24.354  1.00  0.00    -0.047 C 
ATOM      6  C   UNL     1      55.084 156.638  24.444  1.00  0.00     0.010 C 
ENDBRANCH   1   4
BRANCH   1   7
ATOM      7  C   UNL     1      53.331 153.187  26.401  1.00  0.00     0.185 C 
ATOM      8  C   UNL     1      52.790 151.779  26.127  1.00  0.00     0.075 C 
BRANCH   7   9
ATOM      9  C   UNL     1      52.288 154.292  26.131  1.00  0.00     0.100 C 
BRANCH   9  10
ATOM     10  C   UNL     1      52.132 155.237  27.298  1.00  0.00    -0.042 A 
ATOM     11  C   UNL     1      51.349 154.879  28.404  1.00  0.00     0.004 A 
ATOM     12  C   UNL     1      52.779 156.482  27.295  1.00  0.00     0.004 A 
ATOM     13  C   UNL     1      51.223 155.747  29.489  1.00  0.00     0.000 A 
ATOM     14  C   UNL     1      52.650 157.347  28.383  1.00  0.00     0.000 A 
ATOM     15  C   UNL     1      51.873 156.978  29.479  1.00  0.00     0.000 A 
ENDBRANCH   9  10
ENDBRANCH   7   9
ENDBRANCH   1   7
TORSDOF 4
ENDMDL
MODEL 4
REMARK VINA RESULT:    -7.429      1.040      2.157
REMARK INTER + INTRA:          -9.253
REMARK INTER:                  -9.210
REMARK INTRA:                  -0.043
REMARK UNBOUND:                -0.087
REMARK SMILES C#CC[N@H+](C)[C@H](C)Cc1ccccc1
REMARK SMILES IDX 4 1 5 2 3 4 2 5 1 6 6 7 7 8 8 9 9 10 10 11 14 12 11 13 13 14
REMARK SMILES IDX 12 15
REMARK H PARENT 4 3
ROOT
ATOM      1  N   UNL     1      53.048 153.601  25.238  1.00  0.00    -0.325 N 
ATOM      2  C   UNL     1      54.006 153.862  24.108  1.00  0.00     0.333 C 
ATOM      3  H   UNL     1      52.194 153.229  24.802  1.00  0.00     0.348 HD
ENDROOT
BRANCH   1   4
ATOM      4  C   UNL     1      53.535 152.470  26.119  1.00  0.00     0.353 C 
ATOM      5  C   UNL     1      53.830 151.306  25.284  1.00  0.00    -0.047 C 
ATOM      6  C   UNL     1      54.078 150.350  24.599  1.00  0.00     0.010 C 
ENDBRANCH   1   4
BRANCH   1   7
ATOM      7  C   UNL     1      52.605 154.851  26.025  1.00  0.00     0.185 C 
ATOM      8  C   UNL     1      53.310 156.074  25.430  1.00  0.00     0.075 C 
BRANCH   7   9
ATOM      9  C   UNL     1      52.856 154.693  27.540  1.00  0.00     0.100 C 
BRANCH   9  10
ATOM     10  C   UNL     1      52.184 155.774  28.352  1.00  0.00    -0.042 A 
ATOM     11  C   UNL     1      50.989 155.512  29.035  1.00  0.00     0.004 A 
ATOM     12  C   UNL     1      52.755 157.052  28.443  1.00  0.00     0.004 A 
ATOM     13  C   UNL     1      50.381 156.509  29.800  1.00  0.00     0.000 A 
ATOM     14  C   UNL     1      52.144 158.046  29.209  1.00  0.00     0.000 A 
ATOM     15  C   UNL     1      50.958 157.773  29.888  1.00  0.00     0.000 A 
ENDBRANCH   9  10
ENDBRANCH   7   9
ENDBRANCH   1   7
TORSDOF 4
ENDMDL
MODEL 5
REMARK VINA RESULT:    -7.290      1.343      2.437
REMARK INTER + INTRA:          -9.082
REMARK INTER:                  -8.765
REMARK INTRA:                  -0.317
REMARK UNBOUND:                -0.087
REMARK SMILES C#CC[N@H+](C)[C@H](C)Cc1ccccc1
REMARK SMILES IDX 4 1 5 2 3 4 2 5 1 6 6 7 7 8 8 9 9 10 10 11 14 12 11 13 13 14
REMARK SMILES IDX 12 15
REMARK H PARENT 4 3
ROOT
ATOM      1  N   UNL     1      52.868 153.486  26.520  1.00  0.00    -0.325 N 
ATOM      2  C   UNL     1      51.864 152.426  26.879  1.00  0.00     0.333 C 
ATOM      3  H   UNL     1      53.718 153.260  27.054  1.00  0.00     0.348 HD
ENDROOT
BRANCH   1   4
ATOM      4  C   UNL     1      53.300 153.365  25.073  1.00  0.00     0.353 C 
ATOM      5  C   UNL     1      53.835 152.023  24.844  1.00  0.00    -0.047 C 
ATOM      6  C   UNL     1      54.272 150.920  24.653  1.00  0.00     0.010 C 
ENDBRANCH   1   4
BRANCH   1   7
ATOM      7  C   UNL     1      52.485 154.921  26.932  1.00  0.00     0.185 C 
ATOM      8  C   UNL     1      53.141 155.899  25.952  1.00  0.00     0.075 C 
BRANCH   7   9
ATOM      9  C   UNL     1      52.849 155.213  28.404  1.00  0.00     0.100 C 
BRANCH   9  10
ATOM     10  C   UNL     1      52.005 156.312  29.001  1.00  0.00    -0.042 A 
ATOM     11  C   UNL     1      52.487 157.626  29.062  1.00  0.00     0.004 A 
ATOM     12  C   UNL     1      50.721 156.033  29.493  1.00  0.00     0.004 A 
ATOM     13  C   UNL     1      51.696 158.644  29.597  1.00  0.00     0.000 A 
ATOM     14  C   UNL     1      49.933 157.054  30.028  1.00  0.00     0.000 A 
ATOM     15  C   UNL     1      50.420 158.358  30.078  1.00  0.00     0.000 A 
ENDBRANCH   9  10
ENDBRANCH   7   9
ENDBRANCH   1   7
TORSDOF 4
ENDMDL
MODEL 6
REMARK VINA RESULT:    -7.193      5.398      9.084
REMARK INTER + INTRA:          -8.962
REMARK INTER:                  -8.339
REMARK INTRA:                  -0.623
REMARK UNBOUND:                -0.087
REMARK SMILES C#CC[N@H+](C)[C@H](C)Cc1ccccc1
REMARK SMILES IDX 4 1 5 2 3 4 2 5 1 6 6 7 7 8 8 9 9 10 10 11 14 12 11 13 13 14
REMARK SMILES IDX 12 15
REMARK H PARENT 4 3
ROOT
ATOM      1  N   UNL     1      50.033 160.832  32.025  1.00  0.00    -0.325 N 
ATOM      2  C   UNL     1      50.205 161.841  33.126  1.00  0.00     0.333 C 
ATOM      3  H   UNL     1      49.662 159.985  32.477  1.00  0.00     0.348 HD
ENDROOT
BRANCH   1   4
ATOM      4  C   UNL     1      48.937 161.248  31.066  1.00  0.00     0.353 C 
ATOM      5  C   UNL     1      47.770 160.390  31.271  1.00  0.00    -0.047 C 
ATOM      6  C   UNL     1      46.809 159.689  31.441  1.00  0.00     0.010 C 
ENDBRANCH   1   4
BRANCH   1   7
ATOM      7  C   UNL     1      51.335 160.396  31.325  1.00  0.00     0.185 C 
ATOM      8  C   UNL     1      52.344 161.546  31.417  1.00  0.00     0.075 C 
BRANCH   7   9
ATOM      9  C   UNL     1      51.080 159.939  29.872  1.00  0.00     0.100 C 
BRANCH   9  10
ATOM     10  C   UNL     1      51.173 158.440  29.714  1.00  0.00    -0.042 A 
ATOM     11  C   UNL     1      50.107 157.617  30.101  1.00  0.00     0.004 A 
ATOM     12  C   UNL     1      52.324 157.854  29.166  1.00  0.00     0.004 A 
ATOM     13  C   UNL     1      50.188 156.233  29.935  1.00  0.00     0.000 A 
ATOM     14  C   UNL     1      52.401 156.470  29.002  1.00  0.00     0.000 A 
ATOM     15  C   UNL     1      51.333 155.662  29.385  1.00  0.00     0.000 A 
ENDBRANCH   9  10
ENDBRANCH   7   9
ENDBRANCH   1   7
TORSDOF 4
ENDMDL
MODEL 7
REMARK VINA RESULT:    -7.058      5.193      8.814
REMARK INTER + INTRA:          -8.795
REMARK INTER:                  -8.036
REMARK INTRA:                  -0.759
REMARK UNBOUND:                -0.087
REMARK SMILES C#CC[N@H+](C)[C@H](C)Cc1ccccc1
REMARK SMILES IDX 4 1 5 2 3 4 2 5 1 6 6 7 7 8 8 9 9 10 10 11 14 12 11 13 13 14
REMARK SMILES IDX 12 15
REMARK H PARENT 4 3
ROOT
ATOM      1  N   UNL     1      49.709 161.138  31.461  1.00  0.00    -0.325 N 
ATOM      2  C   UNL     1      48.498 160.908  32.323  1.00  0.00     0.333 C 
ATOM      3  H   UNL     1      49.627 162.103  31.115  1.00  0.00     0.348 HD
ENDROOT
BRANCH   1   4
ATOM      4  C   UNL     1      50.977 161.151  32.290  1.00  0.00     0.353 C 
ATOM      5  C   UNL     1      52.104 161.520  31.433  1.00  0.00    -0.047 C 
ATOM      6  C   UNL     1      53.031 161.827  30.732  1.00  0.00     0.010 C 
ENDBRANCH   1   4
BRANCH   1   7
ATOM      7  C   UNL     1      49.800 160.249  30.206  1.00  0.00     0.185 C 
ATOM      8  C   UNL     1      48.851 160.812  29.143  1.00  0.00     0.075 C 
BRANCH   7   9
ATOM      9  C   UNL     1      49.522 158.765  30.531  1.00  0.00     0.100 C 
BRANCH   9  10
ATOM     10  C   UNL     1      50.540 157.838  29.913  1.00  0.00    -0.042 A 
ATOM     11  C   UNL     1      50.275 156.466  29.798  1.00  0.00     0.004 A 
ATOM     12  C   UNL     1      51.759 158.339  29.435  1.00  0.00     0.004 A 
ATOM     13  C   UNL     1      51.210 155.615  29.209  1.00  0.00     0.000 A 
ATOM     14  C   UNL     1      52.692 157.484  28.847  1.00  0.00     0.000 A 
ATOM     15  C   UNL     1      52.416 156.123  28.733  1.00  0.00     0.000 A 
ENDBRANCH   9  10
ENDBRANCH   7   9
ENDBRANCH   1   7
TORSDOF 4
ENDMDL
MODEL 8
REMARK VINA RESULT:    -6.885      2.074      3.900
REMARK INTER + INTRA:          -8.583
REMARK INTER:                  -8.184
REMARK INTRA:                  -0.399
REMARK UNBOUND:                -0.087
REMARK SMILES C#CC[N@H+](C)[C@H](C)Cc1ccccc1
REMARK SMILES IDX 4 1 5 2 3 4 2 5 1 6 6 7 7 8 8 9 9 10 10 11 14 12 11 13 13 14
REMARK SMILES IDX 12 15
REMARK H PARENT 4 3
ROOT
ATOM      1  N   UNL     1      52.763 154.531  27.263  1.00  0.00    -0.325 N 
ATOM      2  C   UNL     1      52.634 153.535  28.382  1.00  0.00     0.333 C 
ATOM      3  H   UNL     1      53.768 154.581  27.047  1.00  0.00     0.348 HD
ENDROOT
BRANCH   1   4
ATOM      4  C   UNL     1      52.138 154.005  25.987  1.00  0.00     0.353 C 
ATOM      5  C   UNL     1      53.190 153.781  24.996  1.00  0.00    -0.047 C 
ATOM      6  C   UNL     1      54.054 153.592  24.182  1.00  0.00     0.010 C 
ENDBRANCH   1   4
BRANCH   1   7
ATOM      7  C   UNL     1      52.337 155.970  27.612  1.00  0.00     0.185 C 
ATOM      8  C   UNL     1      53.214 156.942  26.815  1.00  0.00     0.075 C 
BRANCH   7   9
ATOM      9  C   UNL     1      52.383 156.230  29.133  1.00  0.00     0.100 C 
BRANCH   9  10
ATOM     10  C   UNL     1      51.335 157.219  29.582  1.00  0.00    -0.042 A 
ATOM     11  C   UNL     1      50.022 156.798  29.837  1.00  0.00     0.004 A 
ATOM     12  C   UNL     1      51.665 158.571  29.762  1.00  0.00     0.004 A 
ATOM     13  C   UNL     1      49.061 157.712  30.270  1.00  0.00     0.000 A 
ATOM     14  C   UNL     1      50.699 159.481  30.196  1.00  0.00     0.000 A 
ATOM     15  C   UNL     1      49.399 159.050  30.451  1.00  0.00     0.000 A 
ENDBRANCH   9  10
ENDBRANCH   7   9
ENDBRANCH   1   7
TORSDOF 4
ENDMDL
MODEL 9
REMARK VINA RESULT:    -6.855      4.771      8.989
REMARK INTER + INTRA:          -8.545
REMARK INTER:                  -8.069
REMARK INTRA:                  -0.476
REMARK UNBOUND:                -0.087
REMARK SMILES C#CC[N@H+](C)[C@H](C)Cc1ccccc1
REMARK SMILES IDX 4 1 5 2 3 4 2 5 1 6 6 7 7 8 8 9 9 10 10 11 14 12 11 13 13 14
REMARK SMILES IDX 12 15
REMARK H PARENT 4 3
ROOT
ATOM      1  N   UNL     1      51.050 160.909  31.247  1.00  0.00    -0.325 N 
ATOM      2  C   UNL     1      52.424 161.480  31.022  1.00  0.00     0.333 C 
ATOM      3  H   UNL     1      51.145 160.255  32.035  1.00  0.00     0.348 HD
ENDROOT
BRANCH   1   4
ATOM      4  C   UNL     1      50.094 161.967  31.759  1.00  0.00     0.353 C 
ATOM      5  C   UNL     1      49.480 161.497  33.000  1.00  0.00    -0.047 C 
ATOM      6  C   UNL     1      48.979 161.114  34.023  1.00  0.00     0.010 C 
ENDBRANCH   1   4
BRANCH   1   7
ATOM      7  C   UNL     1      50.485 160.078  30.078  1.00  0.00     0.185 C 
ATOM      8  C   UNL     1      49.281 160.823  29.492  1.00  0.00     0.075 C 
BRANCH   7   9
ATOM      9  C   UNL     1      50.145 158.636  30.511  1.00  0.00     0.100 C 
BRANCH   9  10
ATOM     10  C   UNL     1      50.945 157.602  29.755  1.00  0.00    -0.042 A 
ATOM     11  C   UNL     1      50.537 156.261  29.738  1.00  0.00     0.004 A 
ATOM     12  C   UNL     1      52.099 157.974  29.051  1.00  0.00     0.004 A 
ATOM     13  C   UNL     1      51.268 155.312  29.022  1.00  0.00     0.000 A 
ATOM     14  C   UNL     1      52.828 157.021  28.337  1.00  0.00     0.000 A 
ATOM     15  C   UNL     1      52.411 155.692  28.322  1.00  0.00     0.000 A 
ENDBRANCH   9  10
ENDBRANCH   7   9
ENDBRANCH   1   7
TORSDOF 4
ENDMDL
