MODEL 1
REMARK VINA RESULT:    -7.751      0.000      0.000
REMARK INTER + INTRA:         -11.518
REMARK INTER:                 -11.149
REMARK INTRA:                  -0.369
REMARK UNBOUND:                -0.369
REMARK SMILES O=c1c(O)c(-c2ccc(O)cc2)oc2cc(O[C@@H]3O[C@H](CO)[C@@H](O)[C@H](O)[C@H]3O)cc(O)c12
REMARK SMILES IDX 17 1 16 2 1 3 2 4 3 5 32 6 5 7 30 8 14 9 13 10 29 11 15 12
REMARK SMILES IDX 4 13 6 15 7 16 12 17 8 18 11 19 9 20 10 21 31 23 18 25 19 26
REMARK SMILES IDX 27 27 20 28 25 29 23 30 28 31 21 33 22 34 26 36 24 38
REMARK H PARENT 4 14 10 22 31 24 28 32 22 35 26 37 24 39
ROOT
ATOM      1  O   UNL     1      51.772 167.375  40.832  1.00  0.00    -0.462 OA
ENDROOT
BRANCH   1   2
ATOM      2  C   UNL     1      50.884 166.351  41.009  1.00  0.00     0.130 A 
ATOM      3  O   UNL     1      46.612 163.560  41.503  1.00  0.00    -0.285 OA
ATOM      4  C   UNL     1      47.826 163.392  41.542  1.00  0.00     0.238 A 
ATOM      5  C   UNL     1      48.324 162.015  41.792  1.00  0.00     0.208 A 
ATOM      6  C   UNL     1      48.843 164.447  41.357  1.00  0.00     0.111 A 
ATOM      7  C   UNL     1      49.648 161.792  41.827  1.00  0.00     0.180 A 
ATOM      8  C   UNL     1      48.525 165.790  41.135  1.00  0.00     0.134 A 
ATOM      9  C   UNL     1      50.185 164.071  41.409  1.00  0.00     0.146 A 
ATOM     10  O   UNL     1      50.600 162.780  41.628  1.00  0.00    -0.452 OA
ATOM     11  C   UNL     1      49.541 166.735  40.965  1.00  0.00     0.093 A 
ATOM     12  C   UNL     1      51.203 165.015  41.239  1.00  0.00     0.094 A 
BRANCH   5  13
ATOM     13  O   UNL     1      47.362 161.033  41.958  1.00  0.00    -0.502 OA
ATOM     14  H   UNL     1      47.872 160.194  41.977  1.00  0.00     0.293 HD
ENDBRANCH   5  13
BRANCH   7  15
ATOM     15  C   UNL     1      50.242 160.458  42.060  1.00  0.00     0.021 A 
ATOM     16  C   UNL     1      51.584 160.303  42.436  1.00  0.00     0.016 A 
ATOM     17  C   UNL     1      49.464 159.304  41.862  1.00  0.00     0.016 A 
ATOM     18  C   UNL     1      52.131 159.030  42.622  1.00  0.00     0.047 A 
ATOM     19  C   UNL     1      50.008 158.030  42.049  1.00  0.00     0.047 A 
ATOM     20  C   UNL     1      51.340 157.906  42.429  1.00  0.00     0.115 A 
BRANCH  20  21
ATOM     21  O   UNL     1      51.912 156.684  42.622  1.00  0.00    -0.508 OA
ATOM     22  H   UNL     1      51.928 156.211  41.774  1.00  0.00     0.293 HD
ENDBRANCH  20  21
ENDBRANCH   7  15
BRANCH   8  23
ATOM     23  O   UNL     1      47.225 166.204  41.081  1.00  0.00    -0.507 OA
ATOM     24  H   UNL     1      46.795 165.860  40.282  1.00  0.00     0.293 HD
ENDBRANCH   8  23
ENDBRANCH   1   2
BRANCH   1  25
ATOM     25  C   UNL     1      53.137 167.162  41.235  1.00  0.00     0.339 C 
ATOM     26  O   UNL     1      53.425 167.985  42.371  1.00  0.00    -0.332 OA
ATOM     27  C   UNL     1      54.027 167.541  40.036  1.00  0.00     0.214 C 
ATOM     28  C   UNL     1      54.811 168.278  42.622  1.00  0.00     0.179 C 
ATOM     29  C   UNL     1      55.509 167.310  40.367  1.00  0.00     0.180 C 
ATOM     30  C   UNL     1      55.806 167.385  41.869  1.00  0.00     0.177 C 
BRANCH  27  31
ATOM     31  O   UNL     1      53.708 166.782  38.857  1.00  0.00    -0.384 OA
ATOM     32  H   UNL     1      53.967 167.338  38.099  1.00  0.00     0.211 HD
ENDBRANCH  27  31
BRANCH  28  33
ATOM     33  C   UNL     1      55.032 169.771  42.341  1.00  0.00     0.191 C 
BRANCH  33  34
ATOM     34  O   UNL     1      56.418 170.013  42.094  1.00  0.00    -0.394 OA
ATOM     35  H   UNL     1      56.785 170.351  42.936  1.00  0.00     0.210 HD
ENDBRANCH  33  34
ENDBRANCH  28  33
BRANCH  29  36
ATOM     36  O   UNL     1      56.286 168.278  39.648  1.00  0.00    -0.387 OA
ATOM     37  H   UNL     1      55.909 168.361  38.753  1.00  0.00     0.211 HD
ENDBRANCH  29  36
BRANCH  30  38
ATOM     38  O   UNL     1      55.715 166.061  42.421  1.00  0.00    -0.387 OA
ATOM     39  H   UNL     1      56.389 165.504  41.994  1.00  0.00     0.211 HD
ENDBRANCH  30  38
ENDBRANCH   1  25
TORSDOF 11
ENDMDL
MODEL 2
REMARK VINA RESULT:    -7.393     15.371     17.313
REMARK INTER + INTRA:         -11.004
REMARK INTER:                 -10.909
REMARK INTRA:                  -0.095
REMARK UNBOUND:                -0.369
REMARK SMILES O=c1c(O)c(-c2ccc(O)cc2)oc2cc(O[C@@H]3O[C@H](CO)[C@@H](O)[C@H](O)[C@H]3O)cc(O)c12
REMARK SMILES IDX 17 1 16 2 1 3 2 4 3 5 32 6 5 7 30 8 14 9 13 10 29 11 15 12
REMARK SMILES IDX 4 13 6 15 7 16 12 17 8 18 11 19 9 20 10 21 31 23 18 25 19 26
REMARK SMILES IDX 27 27 20 28 25 29 23 30 28 31 21 33 22 34 26 36 24 38
REMARK H PARENT 4 14 10 22 31 24 28 32 22 35 26 37 24 39
ROOT
ATOM      1  O   UNL     1      51.453 156.935  29.903  1.00  0.00    -0.462 OA
ENDROOT
BRANCH   1   2
ATOM      2  C   UNL     1      52.102 156.442  28.806  1.00  0.00     0.130 A 
ATOM      3  O   UNL     1      54.871 155.963  24.517  1.00  0.00    -0.285 OA
ATOM      4  C   UNL     1      54.229 155.247  25.279  1.00  0.00     0.238 A 
ATOM      5  C   UNL     1      54.171 153.794  24.974  1.00  0.00     0.208 A 
ATOM      6  C   UNL     1      53.507 155.707  26.482  1.00  0.00     0.111 A 
ATOM      7  C   UNL     1      53.488 152.978  25.795  1.00  0.00     0.180 A 
ATOM      8  C   UNL     1      53.455 157.046  26.882  1.00  0.00     0.134 A 
ATOM      9  C   UNL     1      52.847 154.747  27.249  1.00  0.00     0.146 A 
ATOM     10  O   UNL     1      52.832 153.409  26.937  1.00  0.00    -0.452 OA
ATOM     11  C   UNL     1      52.754 157.409  28.036  1.00  0.00     0.093 A 
ATOM     12  C   UNL     1      52.145 155.109  28.404  1.00  0.00     0.094 A 
BRANCH   5  13
ATOM     13  O   UNL     1      54.856 153.372  23.847  1.00  0.00    -0.502 OA
ATOM     14  H   UNL     1      54.150 153.118  23.214  1.00  0.00     0.293 HD
ENDBRANCH   5  13
BRANCH   7  15
ATOM     15  C   UNL     1      53.379 151.519  25.584  1.00  0.00     0.021 A 
ATOM     16  C   UNL     1      54.251 150.830  24.728  1.00  0.00     0.016 A 
ATOM     17  C   UNL     1      52.352 150.797  26.217  1.00  0.00     0.016 A 
ATOM     18  C   UNL     1      54.110 149.455  24.523  1.00  0.00     0.047 A 
ATOM     19  C   UNL     1      52.211 149.421  26.013  1.00  0.00     0.047 A 
ATOM     20  C   UNL     1      53.094 148.762  25.167  1.00  0.00     0.115 A 
BRANCH  20  21
ATOM     21  O   UNL     1      52.993 147.422  24.938  1.00  0.00    -0.508 OA
ATOM     22  H   UNL     1      52.088 147.139  25.147  1.00  0.00     0.293 HD
ENDBRANCH  20  21
ENDBRANCH   7  15
BRANCH   8  23
ATOM     23  O   UNL     1      54.083 158.019  26.159  1.00  0.00    -0.507 OA
ATOM     24  H   UNL     1      54.108 157.777  25.220  1.00  0.00     0.293 HD
ENDBRANCH   8  23
ENDBRANCH   1   2
BRANCH   1  25
ATOM     25  C   UNL     1      50.689 158.144  29.748  1.00  0.00     0.339 C 
ATOM     26  O   UNL     1      51.360 159.213  30.424  1.00  0.00    -0.332 OA
ATOM     27  C   UNL     1      49.300 157.884  30.364  1.00  0.00     0.214 C 
ATOM     28  C   UNL     1      50.558 160.350  30.792  1.00  0.00     0.179 C 
ATOM     29  C   UNL     1      48.400 159.118  30.210  1.00  0.00     0.180 C 
ATOM     30  C   UNL     1      49.192 160.427  30.098  1.00  0.00     0.177 C 
BRANCH  27  31
ATOM     31  O   UNL     1      48.633 156.765  29.754  1.00  0.00    -0.384 OA
ATOM     32  H   UNL     1      49.114 155.970  30.050  1.00  0.00     0.211 HD
ENDBRANCH  27  31
BRANCH  28  33
ATOM     33  C   UNL     1      50.441 160.365  32.323  1.00  0.00     0.191 C 
BRANCH  33  34
ATOM     34  O   UNL     1      50.559 161.706  32.799  1.00  0.00    -0.394 OA
ATOM     35  H   UNL     1      50.976 161.641  33.682  1.00  0.00     0.210 HD
ENDBRANCH  33  34
ENDBRANCH  28  33
BRANCH  29  36
ATOM     36  O   UNL     1      47.504 159.163  31.330  1.00  0.00    -0.387 OA
ATOM     37  H   UNL     1      47.172 158.260  31.485  1.00  0.00     0.211 HD
ENDBRANCH  29  36
BRANCH  30  38
ATOM     38  O   UNL     1      49.419 160.707  28.706  1.00  0.00    -0.387 OA
ATOM     39  H   UNL     1      50.121 161.378  28.640  1.00  0.00     0.211 HD
ENDBRANCH  30  38
ENDBRANCH   1  25
TORSDOF 11
ENDMDL
MODEL 3
REMARK VINA RESULT:    -7.323      3.845      5.452
REMARK INTER + INTRA:         -10.903
REMARK INTER:                 -10.184
REMARK INTRA:                  -0.719
REMARK UNBOUND:                -0.369
REMARK SMILES O=c1c(O)c(-c2ccc(O)cc2)oc2cc(O[C@@H]3O[C@H](CO)[C@@H](O)[C@H](O)[C@H]3O)cc(O)c12
REMARK SMILES IDX 17 1 16 2 1 3 2 4 3 5 32 6 5 7 30 8 14 9 13 10 29 11 15 12
REMARK SMILES IDX 4 13 6 15 7 16 12 17 8 18 11 19 9 20 10 21 31 23 18 25 19 26
REMARK SMILES IDX 27 27 20 28 25 29 23 30 28 31 21 33 22 34 26 36 24 38
REMARK H PARENT 4 14 10 22 31 24 28 32 22 35 26 37 24 39
ROOT
ATOM      1  O   UNL     1      52.000 165.418  40.836  1.00  0.00    -0.462 OA
ENDROOT
BRANCH   1   2
ATOM      2  C   UNL     1      52.385 164.141  41.137  1.00  0.00     0.130 A 
ATOM      3  O   UNL     1      52.457 159.233  42.622  1.00  0.00    -0.285 OA
ATOM      4  C   UNL     1      53.243 160.076  42.202  1.00  0.00     0.238 A 
ATOM      5  C   UNL     1      54.660 159.667  42.023  1.00  0.00     0.208 A 
ATOM      6  C   UNL     1      52.900 161.469  41.853  1.00  0.00     0.111 A 
ATOM      7  C   UNL     1      55.546 160.561  41.551  1.00  0.00     0.180 A 
ATOM      8  C   UNL     1      51.614 162.001  41.989  1.00  0.00     0.134 A 
ATOM      9  C   UNL     1      53.920 162.285  41.364  1.00  0.00     0.146 A 
ATOM     10  O   UNL     1      55.216 161.860  41.200  1.00  0.00    -0.452 OA
ATOM     11  C   UNL     1      51.361 163.329  41.635  1.00  0.00     0.093 A 
ATOM     12  C   UNL     1      53.668 163.615  41.010  1.00  0.00     0.094 A 
BRANCH   5  13
ATOM     13  O   UNL     1      54.970 158.357  42.347  1.00  0.00    -0.502 OA
ATOM     14  H   UNL     1      55.926 158.275  42.140  1.00  0.00     0.293 HD
ENDBRANCH   5  13
BRANCH   7  15
ATOM     15  C   UNL     1      56.974 160.249  41.330  1.00  0.00     0.021 A 
ATOM     16  C   UNL     1      57.554 160.311  40.053  1.00  0.00     0.016 A 
ATOM     17  C   UNL     1      57.774 159.837  42.409  1.00  0.00     0.016 A 
ATOM     18  C   UNL     1      58.900 159.985  39.864  1.00  0.00     0.047 A 
ATOM     19  C   UNL     1      59.121 159.511  42.222  1.00  0.00     0.047 A 
ATOM     20  C   UNL     1      59.672 159.589  40.948  1.00  0.00     0.115 A 
BRANCH  20  21
ATOM     21  O   UNL     1      60.980 159.280  40.719  1.00  0.00    -0.508 OA
ATOM     22  H   UNL     1      61.040 158.788  39.883  1.00  0.00     0.293 HD
ENDBRANCH  20  21
ENDBRANCH   7  15
BRANCH   8  23
ATOM     23  O   UNL     1      50.586 161.240  42.467  1.00  0.00    -0.507 OA
ATOM     24  H   UNL     1      49.743 161.543  42.097  1.00  0.00     0.293 HD
ENDBRANCH   8  23
ENDBRANCH   1   2
BRANCH   1  25
ATOM     25  C   UNL     1      52.857 166.496  41.251  1.00  0.00     0.339 C 
ATOM     26  O   UNL     1      52.241 167.192  42.340  1.00  0.00    -0.332 OA
ATOM     27  C   UNL     1      53.042 167.422  40.033  1.00  0.00     0.214 C 
ATOM     28  C   UNL     1      52.681 168.542  42.576  1.00  0.00     0.179 C 
ATOM     29  C   UNL     1      53.977 168.590  40.378  1.00  0.00     0.180 C 
ATOM     30  C   UNL     1      53.991 168.925  41.875  1.00  0.00     0.177 C 
BRANCH  27  31
ATOM     31  O   UNL     1      53.590 166.730  38.898  1.00  0.00    -0.384 OA
ATOM     32  H   UNL     1      54.167 167.370  38.445  1.00  0.00     0.211 HD
ENDBRANCH  27  31
BRANCH  28  33
ATOM     33  C   UNL     1      51.522 169.482  42.212  1.00  0.00     0.191 C 
BRANCH  33  34
ATOM     34  O   UNL     1      50.325 168.724  42.040  1.00  0.00    -0.394 OA
ATOM     35  H   UNL     1      49.831 169.162  41.318  1.00  0.00     0.210 HD
ENDBRANCH  33  34
ENDBRANCH  28  33
BRANCH  29  36
ATOM     36  O   UNL     1      53.575 169.731  39.607  1.00  0.00    -0.387 OA
ATOM     37  H   UNL     1      54.117 169.753  38.798  1.00  0.00     0.211 HD
ENDBRANCH  29  36
BRANCH  30  38
ATOM     38  O   UNL     1      55.056 168.191  42.500  1.00  0.00    -0.387 OA
ATOM     39  H   UNL     1      54.812 168.028  43.428  1.00  0.00     0.211 HD
ENDBRANCH  30  38
ENDBRANCH   1  25
TORSDOF 11
ENDMDL
MODEL 4
REMARK VINA RESULT:    -6.921     14.280     15.974
REMARK INTER + INTRA:         -10.324
REMARK INTER:                 -10.297
REMARK INTRA:                  -0.027
REMARK UNBOUND:                -0.369
REMARK SMILES O=c1c(O)c(-c2ccc(O)cc2)oc2cc(O[C@@H]3O[C@H](CO)[C@@H](O)[C@H](O)[C@H]3O)cc(O)c12
REMARK SMILES IDX 17 1 16 2 1 3 2 4 3 5 32 6 5 7 30 8 14 9 13 10 29 11 15 12
REMARK SMILES IDX 4 13 6 15 7 16 12 17 8 18 11 19 9 20 10 21 31 23 18 25 19 26
REMARK SMILES IDX 27 27 20 28 25 29 23 30 28 31 21 33 22 34 26 36 24 38
REMARK H PARENT 4 14 10 22 31 24 28 32 22 35 26 37 24 39
ROOT
ATOM      1  O   UNL     1      51.653 159.426  29.758  1.00  0.00    -0.462 OA
ENDROOT
BRANCH   1   2
ATOM      2  C   UNL     1      51.774 158.126  29.353  1.00  0.00     0.130 A 
ATOM      3  O   UNL     1      51.529 153.013  29.048  1.00  0.00    -0.285 OA
ATOM      4  C   UNL     1      51.989 153.949  28.402  1.00  0.00     0.238 A 
ATOM      5  C   UNL     1      52.701 153.630  27.138  1.00  0.00     0.208 A 
ATOM      6  C   UNL     1      51.894 155.375  28.774  1.00  0.00     0.111 A 
ATOM      7  C   UNL     1      53.207 154.632  26.399  1.00  0.00     0.180 A 
ATOM      8  C   UNL     1      51.273 155.824  29.944  1.00  0.00     0.134 A 
ATOM      9  C   UNL     1      52.456 156.311  27.907  1.00  0.00     0.146 A 
ATOM     10  O   UNL     1      53.093 155.971  26.738  1.00  0.00    -0.452 OA
ATOM     11  C   UNL     1      51.217 157.191  30.230  1.00  0.00     0.093 A 
ATOM     12  C   UNL     1      52.401 157.679  28.192  1.00  0.00     0.094 A 
BRANCH   5  13
ATOM     13  O   UNL     1      52.779 152.291  26.796  1.00  0.00    -0.502 OA
ATOM     14  H   UNL     1      52.610 151.814  27.637  1.00  0.00     0.293 HD
ENDBRANCH   5  13
BRANCH   7  15
ATOM     15  C   UNL     1      53.922 154.419  25.123  1.00  0.00     0.021 A 
ATOM     16  C   UNL     1      54.845 155.353  24.629  1.00  0.00     0.016 A 
ATOM     17  C   UNL     1      53.649 153.276  24.352  1.00  0.00     0.016 A 
ATOM     18  C   UNL     1      55.489 155.143  23.406  1.00  0.00     0.047 A 
ATOM     19  C   UNL     1      54.293 153.063  23.129  1.00  0.00     0.047 A 
ATOM     20  C   UNL     1      55.209 154.002  22.668  1.00  0.00     0.115 A 
BRANCH  20  21
ATOM     21  O   UNL     1      55.859 153.836  21.481  1.00  0.00    -0.508 OA
ATOM     22  H   UNL     1      56.811 153.755  21.658  1.00  0.00     0.293 HD
ENDBRANCH  20  21
ENDBRANCH   7  15
BRANCH   8  23
ATOM     23  O   UNL     1      50.713 154.943  30.824  1.00  0.00    -0.507 OA
ATOM     24  H   UNL     1      51.395 154.363  31.198  1.00  0.00     0.293 HD
ENDBRANCH   8  23
ENDBRANCH   1   2
BRANCH   1  25
ATOM     25  C   UNL     1      50.889 159.693  30.946  1.00  0.00     0.339 C 
ATOM     26  O   UNL     1      49.499 159.753  30.607  1.00  0.00    -0.332 OA
ATOM     27  C   UNL     1      51.381 161.042  31.507  1.00  0.00     0.214 C 
ATOM     28  C   UNL     1      48.640 160.461  31.519  1.00  0.00     0.179 C 
ATOM     29  C   UNL     1      50.638 161.393  32.805  1.00  0.00     0.180 C 
ATOM     30  C   UNL     1      49.253 160.740  32.898  1.00  0.00     0.177 C 
BRANCH  27  31
ATOM     31  O   UNL     1      52.792 161.035  31.786  1.00  0.00    -0.384 OA
ATOM     32  H   UNL     1      53.223 160.678  30.988  1.00  0.00     0.211 HD
ENDBRANCH  27  31
BRANCH  28  33
ATOM     33  C   UNL     1      48.166 161.742  30.817  1.00  0.00     0.191 C 
BRANCH  33  34
ATOM     34  O   UNL     1      48.042 162.795  31.773  1.00  0.00    -0.394 OA
ATOM     35  H   UNL     1      47.119 163.114  31.702  1.00  0.00     0.210 HD
ENDBRANCH  33  34
ENDBRANCH  28  33
BRANCH  29  36
ATOM     36  O   UNL     1      50.532 162.820  32.890  1.00  0.00    -0.387 OA
ATOM     37  H   UNL     1      51.355 163.160  33.286  1.00  0.00     0.211 HD
ENDBRANCH  29  36
BRANCH  30  38
ATOM     38  O   UNL     1      49.383 159.484  33.584  1.00  0.00    -0.387 OA
ATOM     39  H   UNL     1      50.179 159.033  33.250  1.00  0.00     0.211 HD
ENDBRANCH  30  38
ENDBRANCH   1  25
TORSDOF 11
ENDMDL
MODEL 5
REMARK VINA RESULT:    -6.649      8.132     12.688
REMARK INTER + INTRA:          -9.933
REMARK INTER:                  -9.885
REMARK INTRA:                  -0.048
REMARK UNBOUND:                -0.369
REMARK SMILES O=c1c(O)c(-c2ccc(O)cc2)oc2cc(O[C@@H]3O[C@H](CO)[C@@H](O)[C@H](O)[C@H]3O)cc(O)c12
REMARK SMILES IDX 17 1 16 2 1 3 2 4 3 5 32 6 5 7 30 8 14 9 13 10 29 11 15 12
REMARK SMILES IDX 4 13 6 15 7 16 12 17 8 18 11 19 9 20 10 21 31 23 18 25 19 26
REMARK SMILES IDX 27 27 20 28 25 29 23 30 28 31 21 33 22 34 26 36 24 38
REMARK H PARENT 4 14 10 22 31 24 28 32 22 35 26 37 24 39
ROOT
ATOM      1  O   UNL     1      58.520 159.898  38.239  1.00  0.00    -0.462 OA
ENDROOT
BRANCH   1   2
ATOM      2  C   UNL     1      59.469 160.867  38.071  1.00  0.00     0.130 A 
ATOM      3  O   UNL     1      63.785 163.629  38.268  1.00  0.00    -0.285 OA
ATOM      4  C   UNL     1      62.665 163.711  37.773  1.00  0.00     0.238 A 
ATOM      5  C   UNL     1      62.356 164.919  36.967  1.00  0.00     0.208 A 
ATOM      6  C   UNL     1      61.593 162.705  37.908  1.00  0.00     0.111 A 
ATOM      7  C   UNL     1      61.144 165.036  36.398  1.00  0.00     0.180 A 
ATOM      8  C   UNL     1      61.732 161.530  38.653  1.00  0.00     0.134 A 
ATOM      9  C   UNL     1      60.386 162.952  37.256  1.00  0.00     0.146 A 
ATOM     10  O   UNL     1      60.149 164.078  36.506  1.00  0.00    -0.452 OA
ATOM     11  C   UNL     1      60.674 160.619  38.734  1.00  0.00     0.093 A 
ATOM     12  C   UNL     1      59.326 162.042  37.336  1.00  0.00     0.094 A 
BRANCH   5  13
ATOM     13  O   UNL     1      63.371 165.853  36.841  1.00  0.00    -0.502 OA
ATOM     14  H   UNL     1      62.961 166.591  36.339  1.00  0.00     0.293 HD
ENDBRANCH   5  13
BRANCH   7  15
ATOM     15  C   UNL     1      60.744 166.194  35.570  1.00  0.00     0.021 A 
ATOM     16  C   UNL     1      60.002 166.036  34.390  1.00  0.00     0.016 A 
ATOM     17  C   UNL     1      61.145 167.489  35.941  1.00  0.00     0.016 A 
ATOM     18  C   UNL     1      59.658 167.143  33.609  1.00  0.00     0.047 A 
ATOM     19  C   UNL     1      60.802 168.598  35.161  1.00  0.00     0.047 A 
ATOM     20  C   UNL     1      60.060 168.413  34.001  1.00  0.00     0.115 A 
BRANCH  20  21
ATOM     21  O   UNL     1      59.703 169.465  33.210  1.00  0.00    -0.508 OA
ATOM     22  H   UNL     1      59.480 169.127  32.327  1.00  0.00     0.293 HD
ENDBRANCH  20  21
ENDBRANCH   7  15
BRANCH   8  23
ATOM     23  O   UNL     1      62.894 161.249  39.313  1.00  0.00    -0.507 OA
ATOM     24  H   UNL     1      62.861 160.354  39.685  1.00  0.00     0.293 HD
ENDBRANCH   8  23
ENDBRANCH   1   2
BRANCH   1  25
ATOM     25  C   UNL     1      57.968 159.715  39.554  1.00  0.00     0.339 C 
ATOM     26  O   UNL     1      57.837 160.992  40.190  1.00  0.00    -0.332 OA
ATOM     27  C   UNL     1      58.942 158.807  40.331  1.00  0.00     0.214 C 
ATOM     28  C   UNL     1      57.766 160.994  41.627  1.00  0.00     0.179 C 
ATOM     29  C   UNL     1      58.411 158.528  41.745  1.00  0.00     0.180 C 
ATOM     30  C   UNL     1      57.475 159.628  42.261  1.00  0.00     0.177 C 
BRANCH  27  31
ATOM     31  O   UNL     1      59.151 157.544  39.674  1.00  0.00    -0.384 OA
ATOM     32  H   UNL     1      58.613 157.570  38.862  1.00  0.00     0.211 HD
ENDBRANCH  27  31
BRANCH  28  33
ATOM     33  C   UNL     1      59.062 161.624  42.159  1.00  0.00     0.191 C 
BRANCH  33  34
ATOM     34  O   UNL     1      59.508 162.637  41.257  1.00  0.00    -0.394 OA
ATOM     35  H   UNL     1      60.047 163.254  41.791  1.00  0.00     0.210 HD
ENDBRANCH  33  34
ENDBRANCH  28  33
BRANCH  29  36
ATOM     36  O   UNL     1      59.534 158.366  42.622  1.00  0.00    -0.387 OA
ATOM     37  H   UNL     1      60.206 157.837  42.155  1.00  0.00     0.211 HD
ENDBRANCH  29  36
BRANCH  30  38
ATOM     38  O   UNL     1      56.122 159.269  41.934  1.00  0.00    -0.387 OA
ATOM     39  H   UNL     1      56.039 158.301  41.992  1.00  0.00     0.211 HD
ENDBRANCH  30  38
ENDBRANCH   1  25
TORSDOF 11
ENDMDL
MODEL 6
REMARK VINA RESULT:    -6.358      2.401      8.402
REMARK INTER + INTRA:          -9.515
REMARK INTER:                  -9.698
REMARK INTRA:                   0.183
REMARK UNBOUND:                -0.369
REMARK SMILES O=c1c(O)c(-c2ccc(O)cc2)oc2cc(O[C@@H]3O[C@H](CO)[C@@H](O)[C@H](O)[C@H]3O)cc(O)c12
REMARK SMILES IDX 17 1 16 2 1 3 2 4 3 5 32 6 5 7 30 8 14 9 13 10 29 11 15 12
REMARK SMILES IDX 4 13 6 15 7 16 12 17 8 18 11 19 9 20 10 21 31 23 18 25 19 26
REMARK SMILES IDX 27 27 20 28 25 29 23 30 28 31 21 33 22 34 26 36 24 38
REMARK H PARENT 4 14 10 22 31 24 28 32 22 35 26 37 24 39
ROOT
ATOM      1  O   UNL     1      49.730 161.384  42.345  1.00  0.00    -0.462 OA
ENDROOT
BRANCH   1   2
ATOM      2  C   UNL     1      51.085 161.446  42.173  1.00  0.00     0.130 A 
ATOM      3  O   UNL     1      56.053 160.269  41.692  1.00  0.00    -0.285 OA
ATOM      4  C   UNL     1      55.343 161.270  41.690  1.00  0.00     0.238 A 
ATOM      5  C   UNL     1      56.005 162.584  41.491  1.00  0.00     0.208 A 
ATOM      6  C   UNL     1      53.877 161.280  41.866  1.00  0.00     0.111 A 
ATOM      7  C   UNL     1      55.257 163.700  41.470  1.00  0.00     0.180 A 
ATOM      8  C   UNL     1      53.121 160.125  42.083  1.00  0.00     0.134 A 
ATOM      9  C   UNL     1      53.226 162.512  41.811  1.00  0.00     0.146 A 
ATOM     10  O   UNL     1      53.879 163.704  41.609  1.00  0.00    -0.452 OA
ATOM     11  C   UNL     1      51.734 160.210  42.238  1.00  0.00     0.093 A 
ATOM     12  C   UNL     1      51.838 162.599  41.966  1.00  0.00     0.094 A 
BRANCH   5  13
ATOM     13  O   UNL     1      57.380 162.563  41.321  1.00  0.00    -0.502 OA
ATOM     14  H   UNL     1      57.520 161.971  40.550  1.00  0.00     0.293 HD
ENDBRANCH   5  13
BRANCH   7  15
ATOM     15  C   UNL     1      55.820 165.052  41.269  1.00  0.00     0.021 A 
ATOM     16  C   UNL     1      57.044 165.434  41.839  1.00  0.00     0.016 A 
ATOM     17  C   UNL     1      55.102 166.004  40.524  1.00  0.00     0.016 A 
ATOM     18  C   UNL     1      57.542 166.728  41.659  1.00  0.00     0.047 A 
ATOM     19  C   UNL     1      55.600 167.298  40.342  1.00  0.00     0.047 A 
ATOM     20  C   UNL     1      56.818 167.647  40.912  1.00  0.00     0.115 A 
BRANCH  20  21
ATOM     21  O   UNL     1      57.342 168.897  40.760  1.00  0.00    -0.508 OA
ATOM     22  H   UNL     1      56.800 169.384  40.117  1.00  0.00     0.293 HD
ENDBRANCH  20  21
ENDBRANCH   7  15
BRANCH   8  23
ATOM     23  O   UNL     1      53.717 158.897  42.148  1.00  0.00    -0.507 OA
ATOM     24  H   UNL     1      54.681 158.989  42.094  1.00  0.00     0.293 HD
ENDBRANCH   8  23
ENDBRANCH   1   2
BRANCH   1  25
ATOM     25  C   UNL     1      48.898 162.086  41.405  1.00  0.00     0.339 C 
ATOM     26  O   UNL     1      49.567 163.282  40.989  1.00  0.00    -0.332 OA
ATOM     27  C   UNL     1      47.576 162.413  42.126  1.00  0.00     0.214 C 
ATOM     28  C   UNL     1      48.741 164.330  40.449  1.00  0.00     0.179 C 
ATOM     29  C   UNL     1      46.607 163.137  41.180  1.00  0.00     0.180 C 
ATOM     30  C   UNL     1      47.323 163.896  40.056  1.00  0.00     0.177 C 
BRANCH  27  31
ATOM     31  O   UNL     1      46.919 161.233  42.622  1.00  0.00    -0.384 OA
ATOM     32  H   UNL     1      47.190 161.146  43.555  1.00  0.00     0.211 HD
ENDBRANCH  27  31
BRANCH  28  33
ATOM     33  C   UNL     1      48.743 165.492  41.453  1.00  0.00     0.191 C 
BRANCH  33  34
ATOM     34  O   UNL     1      47.696 166.407  41.129  1.00  0.00    -0.394 OA
ATOM     35  H   UNL     1      47.972 166.847  40.300  1.00  0.00     0.210 HD
ENDBRANCH  33  34
ENDBRANCH  28  33
BRANCH  29  36
ATOM     36  O   UNL     1      45.800 164.029  41.960  1.00  0.00    -0.387 OA
ATOM     37  H   UNL     1      45.860 164.916  41.559  1.00  0.00     0.211 HD
ENDBRANCH  29  36
BRANCH  30  38
ATOM     38  O   UNL     1      47.428 163.031  38.912  1.00  0.00    -0.387 OA
ATOM     39  H   UNL     1      46.737 163.283  38.274  1.00  0.00     0.211 HD
ENDBRANCH  30  38
ENDBRANCH   1  25
TORSDOF 11
ENDMDL
MODEL 7
REMARK VINA RESULT:    -6.312      2.822      7.147
REMARK INTER + INTRA:          -9.448
REMARK INTER:                 -10.112
REMARK INTRA:                   0.664
REMARK UNBOUND:                -0.369
REMARK SMILES O=c1c(O)c(-c2ccc(O)cc2)oc2cc(O[C@@H]3O[C@H](CO)[C@@H](O)[C@H](O)[C@H]3O)cc(O)c12
REMARK SMILES IDX 17 1 16 2 1 3 2 4 3 5 32 6 5 7 30 8 14 9 13 10 29 11 15 12
REMARK SMILES IDX 4 13 6 15 7 16 12 17 8 18 11 19 9 20 10 21 31 23 18 25 19 26
REMARK SMILES IDX 27 27 20 28 25 29 23 30 28 31 21 33 22 34 26 36 24 38
REMARK H PARENT 4 14 10 22 31 24 28 32 22 35 26 37 24 39
ROOT
ATOM      1  O   UNL     1      47.612 161.706  41.833  1.00  0.00    -0.462 OA
ENDROOT
BRANCH   1   2
ATOM      2  C   UNL     1      48.815 161.068  41.956  1.00  0.00     0.130 A 
ATOM      3  O   UNL     1      52.482 157.546  42.622  1.00  0.00    -0.285 OA
ATOM      4  C   UNL     1      52.395 158.753  42.419  1.00  0.00     0.238 A 
ATOM      5  C   UNL     1      53.659 159.525  42.309  1.00  0.00     0.208 A 
ATOM      6  C   UNL     1      51.135 159.508  42.272  1.00  0.00     0.111 A 
ATOM      7  C   UNL     1      53.602 160.847  42.073  1.00  0.00     0.180 A 
ATOM      8  C   UNL     1      49.871 158.921  42.372  1.00  0.00     0.134 A 
ATOM      9  C   UNL     1      51.225 160.877  42.020  1.00  0.00     0.146 A 
ATOM     10  O   UNL     1      52.418 161.549  41.910  1.00  0.00    -0.452 OA
ATOM     11  C   UNL     1      48.719 159.698  42.218  1.00  0.00     0.093 A 
ATOM     12  C   UNL     1      50.073 161.656  41.865  1.00  0.00     0.094 A 
BRANCH   5  13
ATOM     13  O   UNL     1      54.835 158.806  42.442  1.00  0.00    -0.502 OA
ATOM     14  H   UNL     1      54.543 157.871  42.509  1.00  0.00     0.293 HD
ENDBRANCH   5  13
BRANCH   7  15
ATOM     15  C   UNL     1      54.802 161.701  41.937  1.00  0.00     0.021 A 
ATOM     16  C   UNL     1      56.011 161.199  41.433  1.00  0.00     0.016 A 
ATOM     17  C   UNL     1      54.756 163.040  42.359  1.00  0.00     0.016 A 
ATOM     18  C   UNL     1      57.140 162.018  41.341  1.00  0.00     0.047 A 
ATOM     19  C   UNL     1      55.884 163.862  42.267  1.00  0.00     0.047 A 
ATOM     20  C   UNL     1      57.067 163.341  41.756  1.00  0.00     0.115 A 
BRANCH  20  21
ATOM     21  O   UNL     1      58.192 164.104  41.647  1.00  0.00    -0.508 OA
ATOM     22  H   UNL     1      57.963 165.024  41.862  1.00  0.00     0.293 HD
ENDBRANCH  20  21
ENDBRANCH   7  15
BRANCH   8  23
ATOM     23  O   UNL     1      49.735 157.585  42.622  1.00  0.00    -0.507 OA
ATOM     24  H   UNL     1      50.558 157.118  42.410  1.00  0.00     0.293 HD
ENDBRANCH   8  23
ENDBRANCH   1   2
BRANCH   1  25
ATOM     25  C   UNL     1      47.539 162.842  40.954  1.00  0.00     0.339 C 
ATOM     26  O   UNL     1      48.810 163.028  40.321  1.00  0.00    -0.332 OA
ATOM     27  C   UNL     1      47.168 164.062  41.819  1.00  0.00     0.214 C 
ATOM     28  C   UNL     1      49.086 164.340  39.797  1.00  0.00     0.179 C 
ATOM     29  C   UNL     1      47.033 165.322  40.951  1.00  0.00     0.180 C 
ATOM     30  C   UNL     1      47.860 165.251  39.661  1.00  0.00     0.177 C 
BRANCH  27  31
ATOM     31  O   UNL     1      45.930 163.872  42.528  1.00  0.00    -0.384 OA
ATOM     32  H   UNL     1      46.095 164.166  43.442  1.00  0.00     0.211 HD
ENDBRANCH  27  31
BRANCH  28  33
ATOM     33  C   UNL     1      50.191 164.965  40.661  1.00  0.00     0.191 C 
BRANCH  33  34
ATOM     34  O   UNL     1      50.649 166.173  40.053  1.00  0.00    -0.394 OA
ATOM     35  H   UNL     1      49.852 166.613  39.696  1.00  0.00     0.210 HD
ENDBRANCH  33  34
ENDBRANCH  28  33
BRANCH  29  36
ATOM     36  O   UNL     1      47.420 166.455  41.740  1.00  0.00    -0.387 OA
ATOM     37  H   UNL     1      47.941 166.129  42.497  1.00  0.00     0.211 HD
ENDBRANCH  29  36
BRANCH  30  38
ATOM     38  O   UNL     1      47.031 164.722  38.613  1.00  0.00    -0.387 OA
ATOM     39  H   UNL     1      46.104 164.750  38.911  1.00  0.00     0.211 HD
ENDBRANCH  30  38
ENDBRANCH   1  25
TORSDOF 11
ENDMDL
MODEL 8
REMARK VINA RESULT:    -5.833      8.036     12.678
REMARK INTER + INTRA:          -8.759
REMARK INTER:                  -8.309
REMARK INTRA:                  -0.450
REMARK UNBOUND:                -0.369
REMARK SMILES O=c1c(O)c(-c2ccc(O)cc2)oc2cc(O[C@@H]3O[C@H](CO)[C@@H](O)[C@H](O)[C@H]3O)cc(O)c12
REMARK SMILES IDX 17 1 16 2 1 3 2 4 3 5 32 6 5 7 30 8 14 9 13 10 29 11 15 12
REMARK SMILES IDX 4 13 6 15 7 16 12 17 8 18 11 19 9 20 10 21 31 23 18 25 19 26
REMARK SMILES IDX 27 27 20 28 25 29 23 30 28 31 21 33 22 34 26 36 24 38
REMARK H PARENT 4 14 10 22 31 24 28 32 22 35 26 37 24 39
ROOT
ATOM      1  O   UNL     1      62.081 160.819  39.834  1.00  0.00    -0.462 OA
ENDROOT
BRANCH   1   2
ATOM      2  C   UNL     1      61.791 162.155  39.854  1.00  0.00     0.130 A 
ATOM      3  O   UNL     1      60.726 166.948  41.333  1.00  0.00    -0.285 OA
ATOM      4  C   UNL     1      60.862 166.319  40.288  1.00  0.00     0.238 A 
ATOM      5  C   UNL     1      60.699 167.061  39.012  1.00  0.00     0.208 A 
ATOM      6  C   UNL     1      61.178 164.880  40.189  1.00  0.00     0.111 A 
ATOM      7  C   UNL     1      60.854 166.408  37.848  1.00  0.00     0.180 A 
ATOM      8  C   UNL     1      61.338 164.051  41.303  1.00  0.00     0.134 A 
ATOM      9  C   UNL     1      61.320 164.334  38.914  1.00  0.00     0.146 A 
ATOM     10  O   UNL     1      61.176 165.063  37.759  1.00  0.00    -0.452 OA
ATOM     11  C   UNL     1      61.640 162.696  41.134  1.00  0.00     0.093 A 
ATOM     12  C   UNL     1      61.623 162.978  38.743  1.00  0.00     0.094 A 
BRANCH   5  13
ATOM     13  O   UNL     1      60.409 168.411  39.116  1.00  0.00    -0.502 OA
ATOM     14  H   UNL     1      60.603 168.771  38.223  1.00  0.00     0.293 HD
ENDBRANCH   5  13
BRANCH   7  15
ATOM     15  C   UNL     1      60.722 167.058  36.527  1.00  0.00     0.021 A 
ATOM     16  C   UNL     1      59.990 166.470  35.485  1.00  0.00     0.016 A 
ATOM     17  C   UNL     1      61.377 168.277  36.281  1.00  0.00     0.016 A 
ATOM     18  C   UNL     1      59.903 167.090  34.235  1.00  0.00     0.047 A 
ATOM     19  C   UNL     1      61.291 168.900  35.032  1.00  0.00     0.047 A 
ATOM     20  C   UNL     1      60.552 168.299  34.019  1.00  0.00     0.115 A 
BRANCH  20  21
ATOM     21  O   UNL     1      60.440 168.869  32.786  1.00  0.00    -0.508 OA
ATOM     22  H   UNL     1      61.301 169.248  32.541  1.00  0.00     0.293 HD
ENDBRANCH  20  21
ENDBRANCH   7  15
BRANCH   8  23
ATOM     23  O   UNL     1      61.203 164.542  42.570  1.00  0.00    -0.507 OA
ATOM     24  H   UNL     1      61.374 165.496  42.580  1.00  0.00     0.293 HD
ENDBRANCH   8  23
ENDBRANCH   1   2
BRANCH   1  25
ATOM     25  C   UNL     1      60.982 159.891  39.817  1.00  0.00     0.339 C 
ATOM     26  O   UNL     1      59.796 160.575  39.397  1.00  0.00    -0.332 OA
ATOM     27  C   UNL     1      60.828 159.346  41.250  1.00  0.00     0.214 C 
ATOM     28  C   UNL     1      58.540 159.976  39.762  1.00  0.00     0.179 C 
ATOM     29  C   UNL     1      59.693 158.314  41.319  1.00  0.00     0.180 C 
ATOM     30  C   UNL     1      58.633 158.518  40.229  1.00  0.00     0.177 C 
BRANCH  27  31
ATOM     31  O   UNL     1      62.032 158.719  41.728  1.00  0.00    -0.384 OA
ATOM     32  H   UNL     1      62.089 158.933  42.677  1.00  0.00     0.211 HD
ENDBRANCH  27  31
BRANCH  28  33
ATOM     33  C   UNL     1      57.874 160.886  40.806  1.00  0.00     0.191 C 
BRANCH  33  34
ATOM     34  O   UNL     1      56.838 160.168  41.476  1.00  0.00    -0.394 OA
ATOM     35  H   UNL     1      56.287 159.773  40.771  1.00  0.00     0.210 HD
ENDBRANCH  33  34
ENDBRANCH  28  33
BRANCH  29  36
ATOM     36  O   UNL     1      59.099 158.385  42.622  1.00  0.00    -0.387 OA
ATOM     37  H   UNL     1      58.284 157.851  42.611  1.00  0.00     0.211 HD
ENDBRANCH  29  36
BRANCH  30  38
ATOM     38  O   UNL     1      58.983 157.712  39.092  1.00  0.00    -0.387 OA
ATOM     39  H   UNL     1      59.945 157.779  38.954  1.00  0.00     0.211 HD
ENDBRANCH  30  38
ENDBRANCH   1  25
TORSDOF 11
ENDMDL
MODEL 9
REMARK VINA RESULT:    -5.511      8.718     13.480
REMARK INTER + INTRA:          -8.297
REMARK INTER:                  -7.750
REMARK INTRA:                  -0.546
REMARK UNBOUND:                -0.369
REMARK SMILES O=c1c(O)c(-c2ccc(O)cc2)oc2cc(O[C@@H]3O[C@H](CO)[C@@H](O)[C@H](O)[C@H]3O)cc(O)c12
REMARK SMILES IDX 17 1 16 2 1 3 2 4 3 5 32 6 5 7 30 8 14 9 13 10 29 11 15 12
REMARK SMILES IDX 4 13 6 15 7 16 12 17 8 18 11 19 9 20 10 21 31 23 18 25 19 26
REMARK SMILES IDX 27 27 20 28 25 29 23 30 28 31 21 33 22 34 26 36 24 38
REMARK H PARENT 4 14 10 22 31 24 28 32 22 35 26 37 24 39
ROOT
ATOM      1  O   UNL     1      61.753 161.402  40.340  1.00  0.00    -0.462 OA
ENDROOT
BRANCH   1   2
ATOM      2  C   UNL     1      62.080 162.722  40.199  1.00  0.00     0.130 A 
ATOM      3  O   UNL     1      63.789 167.490  40.995  1.00  0.00    -0.285 OA
ATOM      4  C   UNL     1      63.225 166.853  40.111  1.00  0.00     0.238 A 
ATOM      5  C   UNL     1      62.897 167.568  38.850  1.00  0.00     0.208 A 
ATOM      6  C   UNL     1      62.846 165.429  40.190  1.00  0.00     0.111 A 
ATOM      7  C   UNL     1      62.292 166.898  37.854  1.00  0.00     0.180 A 
ATOM      8  C   UNL     1      63.071 164.636  41.319  1.00  0.00     0.134 A 
ATOM      9  C   UNL     1      62.231 164.858  39.076  1.00  0.00     0.146 A 
ATOM     10  O   UNL     1      61.960 165.554  37.922  1.00  0.00    -0.452 OA
ATOM     11  C   UNL     1      62.688 163.291  41.322  1.00  0.00     0.093 A 
ATOM     12  C   UNL     1      61.847 163.513  39.077  1.00  0.00     0.094 A 
BRANCH   5  13
ATOM     13  O   UNL     1      63.263 168.902  38.784  1.00  0.00    -0.502 OA
ATOM     14  H   UNL     1      63.957 168.998  39.471  1.00  0.00     0.293 HD
ENDBRANCH   5  13
BRANCH   7  15
ATOM     15  C   UNL     1      61.934 167.516  36.560  1.00  0.00     0.021 A 
ATOM     16  C   UNL     1      60.610 167.864  36.250  1.00  0.00     0.016 A 
ATOM     17  C   UNL     1      62.927 167.727  35.589  1.00  0.00     0.016 A 
ATOM     18  C   UNL     1      60.291 168.422  35.009  1.00  0.00     0.047 A 
ATOM     19  C   UNL     1      62.610 168.285  34.346  1.00  0.00     0.047 A 
ATOM     20  C   UNL     1      61.292 168.628  34.069  1.00  0.00     0.115 A 
BRANCH  20  21
ATOM     21  O   UNL     1      60.937 169.174  32.871  1.00  0.00    -0.508 OA
ATOM     22  H   UNL     1      60.210 168.650  32.495  1.00  0.00     0.293 HD
ENDBRANCH  20  21
ENDBRANCH   7  15
BRANCH   8  23
ATOM     23  O   UNL     1      63.666 165.153  42.434  1.00  0.00    -0.507 OA
ATOM     24  H   UNL     1      64.291 164.514  42.809  1.00  0.00     0.293 HD
ENDBRANCH   8  23
ENDBRANCH   1   2
BRANCH   1  25
ATOM     25  C   UNL     1      60.373 161.029  40.183  1.00  0.00     0.339 C 
ATOM     26  O   UNL     1      59.946 160.312  41.347  1.00  0.00    -0.332 OA
ATOM     27  C   UNL     1      60.283 160.144  38.924  1.00  0.00     0.214 C 
ATOM     28  C   UNL     1      58.794 159.462  41.197  1.00  0.00     0.179 C 
ATOM     29  C   UNL     1      58.830 159.725  38.658  1.00  0.00     0.180 C 
ATOM     30  C   UNL     1      57.969 159.713  39.927  1.00  0.00     0.177 C 
BRANCH  27  31
ATOM     31  O   UNL     1      60.778 160.813  37.751  1.00  0.00    -0.384 OA
ATOM     32  H   UNL     1      60.911 160.118  37.080  1.00  0.00     0.211 HD
ENDBRANCH  27  31
BRANCH  28  33
ATOM     33  C   UNL     1      59.269 158.006  41.311  1.00  0.00     0.191 C 
BRANCH  33  34
ATOM     34  O   UNL     1      60.693 157.973  41.414  1.00  0.00    -0.394 OA
ATOM     35  H   UNL     1      60.954 158.834  41.800  1.00  0.00     0.210 HD
ENDBRANCH  33  34
ENDBRANCH  28  33
BRANCH  29  36
ATOM     36  O   UNL     1      58.841 158.431  38.041  1.00  0.00    -0.387 OA
ATOM     37  H   UNL     1      59.109 157.780  38.714  1.00  0.00     0.211 HD
ENDBRANCH  29  36
BRANCH  30  38
ATOM     38  O   UNL     1      57.331 160.994  40.062  1.00  0.00    -0.387 OA
ATOM     39  H   UNL     1      56.580 161.029  39.443  1.00  0.00     0.211 HD
ENDBRANCH  30  38
ENDBRANCH   1  25
TORSDOF 11
ENDMDL
