MODEL 1
REMARK VINA RESULT:    -9.218      0.000      0.000
REMARK INTER + INTRA:         -12.381
REMARK INTER:                 -11.912
REMARK INTRA:                  -0.469
REMARK UNBOUND:                -0.469
REMARK SMILES CC[C@](C)(O)C#Cc1cc2c(ccn2-c2cc(OC)nc(N)n2)cn1
REMARK SMILES IDX 7 1 8 2 9 3 10 4 11 5 12 6 13 7 14 8 24 9 25 10 6 11 3 12
REMARK SMILES IDX 4 13 2 14 1 15 5 16 15 18 16 19 23 20 17 21 21 22 20 23
REMARK SMILES IDX 18 24 19 25 22 26
REMARK H PARENT 5 17 22 27 22 28
ROOT
ATOM      1  C   UNL     1      38.138  29.273 -15.256  1.00  0.00    -0.044 C 
ATOM      2  C   UNL     1      37.547  30.407 -15.892  1.00  0.00     0.115 A 
ATOM      3  C   UNL     1      36.166  30.555 -15.931  1.00  0.00     0.065 A 
ATOM      4  C   UNL     1      35.680  31.708 -16.568  1.00  0.00     0.059 A 
ATOM      5  C   UNL     1      36.583  32.587 -17.190  1.00  0.00     0.018 A 
ATOM      6  C   UNL     1      35.825  33.574 -17.864  1.00  0.00     0.030 A 
ATOM      7  C   UNL     1      34.500  33.287 -17.653  1.00  0.00     0.094 A 
ATOM      8  N   UNL     1      34.393  32.208 -16.789  1.00  0.00    -0.301 N 
ATOM      9  C   UNL     1      37.962  32.349 -17.086  1.00  0.00     0.122 A 
ATOM     10  N   UNL     1      38.433  31.267 -16.427  1.00  0.00    -0.247 NA
ENDROOT
BRANCH   1  11
ATOM     11  C   UNL     1      38.640  28.320 -14.723  1.00  0.00    -0.062 C 
ATOM     12  C   UNL     1      39.260  27.147 -14.085  1.00  0.00     0.122 C 
ATOM     13  C   UNL     1      39.452  27.392 -12.589  1.00  0.00     0.057 C 
BRANCH  12  14
ATOM     14  C   UNL     1      40.570  26.747 -14.791  1.00  0.00     0.045 C 
ATOM     15  C   UNL     1      41.740  26.434 -13.868  1.00  0.00     0.008 C 
ENDBRANCH  12  14
BRANCH  12  16
ATOM     16  O   UNL     1      38.354  26.045 -14.209  1.00  0.00    -0.378 OA
ATOM     17  H   UNL     1      38.897  25.250 -14.354  1.00  0.00     0.212 HD
ENDBRANCH  12  16
ENDBRANCH   1  11
BRANCH   8  18
ATOM     18  C   UNL     1      33.133  31.764 -16.270  1.00  0.00     0.146 A 
ATOM     19  C   UNL     1      33.029  31.215 -15.015  1.00  0.00     0.116 A 
ATOM     20  N   UNL     1      32.047  31.959 -17.056  1.00  0.00    -0.195 NA
ATOM     21  C   UNL     1      31.762  30.837 -14.639  1.00  0.00     0.220 A 
ATOM     22  C   UNL     1      30.863  31.564 -16.585  1.00  0.00     0.225 A 
ATOM     23  N   UNL     1      30.672  30.981 -15.406  1.00  0.00    -0.177 NA
BRANCH  21  24
ATOM     24  O   UNL     1      31.651  30.282 -13.377  1.00  0.00    -0.481 OA
ATOM     25  C   UNL     1      32.876  30.293 -12.649  1.00  0.00     0.280 C 
ENDBRANCH  21  24
BRANCH  22  26
ATOM     26  N   UNL     1      29.765  31.737 -17.400  1.00  0.00    -0.368 N 
ATOM     27  H   UNL     1      29.002  31.155 -17.084  1.00  0.00     0.159 HD
ATOM     28  H   UNL     1      29.577  32.721 -17.530  1.00  0.00     0.159 HD
ENDBRANCH  22  26
ENDBRANCH   8  18
TORSDOF 6
ENDMDL
MODEL 2
REMARK VINA RESULT:    -8.866      1.238      2.084
REMARK INTER + INTRA:         -11.926
REMARK INTER:                 -11.509
REMARK INTRA:                  -0.417
REMARK UNBOUND:                -0.469
REMARK SMILES CC[C@](C)(O)C#Cc1cc2c(ccn2-c2cc(OC)nc(N)n2)cn1
REMARK SMILES IDX 7 1 8 2 9 3 10 4 11 5 12 6 13 7 14 8 24 9 25 10 6 11 3 12
REMARK SMILES IDX 4 13 2 14 1 15 5 16 15 18 16 19 23 20 17 21 21 22 20 23
REMARK SMILES IDX 18 24 19 25 22 26
REMARK H PARENT 5 17 22 27 22 28
ROOT
ATOM      1  C   UNL     1      38.289  29.180 -15.100  1.00  0.00    -0.044 C 
ATOM      2  C   UNL     1      37.688  30.303 -15.746  1.00  0.00     0.115 A 
ATOM      3  C   UNL     1      36.310  30.476 -15.725  1.00  0.00     0.065 A 
ATOM      4  C   UNL     1      35.815  31.617 -16.377  1.00  0.00     0.059 A 
ATOM      5  C   UNL     1      36.703  32.456 -17.072  1.00  0.00     0.018 A 
ATOM      6  C   UNL     1      35.930  33.434 -17.742  1.00  0.00     0.030 A 
ATOM      7  C   UNL     1      34.613  33.181 -17.459  1.00  0.00     0.094 A 
ATOM      8  N   UNL     1      34.527  32.134 -16.554  1.00  0.00    -0.301 N 
ATOM      9  C   UNL     1      38.080  32.194 -17.025  1.00  0.00     0.122 A 
ATOM     10  N   UNL     1      38.563  31.127 -16.353  1.00  0.00    -0.247 NA
ENDROOT
BRANCH   1  11
ATOM     11  C   UNL     1      38.798  28.235 -14.559  1.00  0.00    -0.062 C 
ATOM     12  C   UNL     1      39.428  27.073 -13.911  1.00  0.00     0.122 C 
ATOM     13  C   UNL     1      39.632  27.339 -12.420  1.00  0.00     0.057 C 
BRANCH  12  14
ATOM     14  C   UNL     1      40.733  26.668 -14.623  1.00  0.00     0.045 C 
ATOM     15  C   UNL     1      41.962  26.572 -13.729  1.00  0.00     0.008 C 
ENDBRANCH  12  14
BRANCH  12  16
ATOM     16  O   UNL     1      38.525  25.967 -14.012  1.00  0.00    -0.378 OA
ATOM     17  H   UNL     1      38.105  25.866 -13.139  1.00  0.00     0.212 HD
ENDBRANCH  12  16
ENDBRANCH   1  11
BRANCH   8  18
ATOM     18  C   UNL     1      33.286  31.733 -15.961  1.00  0.00     0.146 A 
ATOM     19  C   UNL     1      32.096  31.863 -16.634  1.00  0.00     0.116 A 
ATOM     20  N   UNL     1      33.352  31.176 -14.728  1.00  0.00    -0.195 NA
ATOM     21  C   UNL     1      30.982  31.434 -15.952  1.00  0.00     0.220 A 
ATOM     22  C   UNL     1      32.209  30.784 -14.164  1.00  0.00     0.225 A 
ATOM     23  N   UNL     1      31.007  30.912 -14.718  1.00  0.00    -0.177 NA
BRANCH  21  24
ATOM     24  O   UNL     1      29.780  31.563 -16.624  1.00  0.00    -0.481 OA
ATOM     25  C   UNL     1      29.878  32.355 -17.805  1.00  0.00     0.280 C 
ENDBRANCH  21  24
BRANCH  22  26
ATOM     26  N   UNL     1      32.276  30.245 -12.897  1.00  0.00    -0.368 N 
ATOM     27  H   UNL     1      31.529  29.579 -12.762  1.00  0.00     0.159 HD
ATOM     28  H   UNL     1      33.217  29.936 -12.699  1.00  0.00     0.159 HD
ENDBRANCH  22  26
ENDBRANCH   8  18
TORSDOF 6
ENDMDL
MODEL 3
REMARK VINA RESULT:    -8.559      3.918      9.196
REMARK INTER + INTRA:         -11.529
REMARK INTER:                 -11.051
REMARK INTRA:                  -0.478
REMARK UNBOUND:                -0.469
REMARK SMILES CC[C@](C)(O)C#Cc1cc2c(ccn2-c2cc(OC)nc(N)n2)cn1
REMARK SMILES IDX 7 1 8 2 9 3 10 4 11 5 12 6 13 7 14 8 24 9 25 10 6 11 3 12
REMARK SMILES IDX 4 13 2 14 1 15 5 16 15 18 16 19 23 20 17 21 21 22 20 23
REMARK SMILES IDX 18 24 19 25 22 26
REMARK H PARENT 5 17 22 27 22 28
ROOT
ATOM      1  C   UNL     1      36.847  29.393 -15.235  1.00  0.00    -0.044 C 
ATOM      2  C   UNL     1      37.729  28.408 -15.777  1.00  0.00     0.115 A 
ATOM      3  C   UNL     1      38.901  28.070 -15.114  1.00  0.00     0.065 A 
ATOM      4  C   UNL     1      39.696  27.083 -15.718  1.00  0.00     0.059 A 
ATOM      5  C   UNL     1      39.322  26.563 -16.969  1.00  0.00     0.018 A 
ATOM      6  C   UNL     1      40.358  25.703 -17.403  1.00  0.00     0.030 A 
ATOM      7  C   UNL     1      41.332  25.714 -16.437  1.00  0.00     0.094 A 
ATOM      8  N   UNL     1      40.905  26.476 -15.360  1.00  0.00    -0.301 N 
ATOM      9  C   UNL     1      38.112  26.969 -17.551  1.00  0.00     0.122 A 
ATOM     10  N   UNL     1      37.319  27.879 -16.945  1.00  0.00    -0.247 NA
ENDROOT
BRANCH   1  11
ATOM     11  C   UNL     1      36.103  30.223 -14.784  1.00  0.00    -0.062 C 
ATOM     12  C   UNL     1      35.181  31.235 -14.243  1.00  0.00     0.122 C 
ATOM     13  C   UNL     1      35.554  31.581 -12.803  1.00  0.00     0.057 C 
BRANCH  12  14
ATOM     14  C   UNL     1      33.712  30.792 -14.383  1.00  0.00     0.045 C 
ATOM     15  C   UNL     1      33.013  30.429 -13.080  1.00  0.00     0.008 C 
ENDBRANCH  12  14
BRANCH  12  16
ATOM     16  O   UNL     1      35.341  32.434 -15.009  1.00  0.00    -0.378 OA
ATOM     17  H   UNL     1      34.867  33.137 -14.532  1.00  0.00     0.212 HD
ENDBRANCH  12  16
ENDBRANCH   1  11
BRANCH   8  18
ATOM     18  C   UNL     1      41.648  26.559 -14.137  1.00  0.00     0.146 A 
ATOM     19  C   UNL     1      43.021  26.621 -14.137  1.00  0.00     0.116 A 
ATOM     20  N   UNL     1      40.930  26.623 -12.991  1.00  0.00    -0.195 NA
ATOM     21  C   UNL     1      43.607  26.704 -12.896  1.00  0.00     0.220 A 
ATOM     22  C   UNL     1      41.602  26.714 -11.843  1.00  0.00     0.225 A 
ATOM     23  N   UNL     1      42.928  26.732 -11.740  1.00  0.00    -0.177 NA
BRANCH  21  24
ATOM     24  O   UNL     1      44.988  26.766 -12.888  1.00  0.00    -0.481 OA
ATOM     25  C   UNL     1      45.603  25.687 -13.586  1.00  0.00     0.280 C 
ENDBRANCH  21  24
BRANCH  22  26
ATOM     26  N   UNL     1      40.869  26.749 -10.677  1.00  0.00    -0.368 N 
ATOM     27  H   UNL     1      40.183  27.489 -10.718  1.00  0.00     0.159 HD
ATOM     28  H   UNL     1      40.541  25.823 -10.442  1.00  0.00     0.159 HD
ENDBRANCH  22  26
ENDBRANCH   8  18
TORSDOF 6
ENDMDL
MODEL 4
REMARK VINA RESULT:    -7.381      2.951      8.744
REMARK INTER + INTRA:         -10.007
REMARK INTER:                  -9.641
REMARK INTRA:                  -0.366
REMARK UNBOUND:                -0.469
REMARK SMILES CC[C@](C)(O)C#Cc1cc2c(ccn2-c2cc(OC)nc(N)n2)cn1
REMARK SMILES IDX 7 1 8 2 9 3 10 4 11 5 12 6 13 7 14 8 24 9 25 10 6 11 3 12
REMARK SMILES IDX 4 13 2 14 1 15 5 16 15 18 16 19 23 20 17 21 21 22 20 23
REMARK SMILES IDX 18 24 19 25 22 26
REMARK H PARENT 5 17 22 27 22 28
ROOT
ATOM      1  C   UNL     1      30.587  32.873 -17.331  1.00  0.00    -0.044 C 
ATOM      2  C   UNL     1      31.089  32.183 -16.185  1.00  0.00     0.115 A 
ATOM      3  C   UNL     1      32.421  31.798 -16.120  1.00  0.00     0.065 A 
ATOM      4  C   UNL     1      32.822  31.136 -14.949  1.00  0.00     0.059 A 
ATOM      5  C   UNL     1      31.866  30.827 -13.967  1.00  0.00     0.018 A 
ATOM      6  C   UNL     1      32.507  30.048 -12.974  1.00  0.00     0.030 A 
ATOM      7  C   UNL     1      33.814  29.889 -13.359  1.00  0.00     0.094 A 
ATOM      8  N   UNL     1      34.049  30.623 -14.512  1.00  0.00    -0.301 N 
ATOM      9  C   UNL     1      30.544  31.268 -14.127  1.00  0.00     0.122 A 
ATOM     10  N   UNL     1      30.169  31.952 -15.230  1.00  0.00    -0.247 NA
ENDROOT
BRANCH   1  11
ATOM     11  C   UNL     1      30.160  33.452 -18.293  1.00  0.00    -0.062 C 
ATOM     12  C   UNL     1      29.627  34.151 -19.475  1.00  0.00     0.122 C 
ATOM     13  C   UNL     1      30.031  35.624 -19.451  1.00  0.00     0.057 C 
BRANCH  12  14
ATOM     14  C   UNL     1      28.103  33.958 -19.603  1.00  0.00     0.045 C 
ATOM     15  C   UNL     1      27.353  35.110 -20.259  1.00  0.00     0.008 C 
ENDBRANCH  12  14
BRANCH  12  16
ATOM     16  O   UNL     1      30.230  33.576 -20.639  1.00  0.00    -0.378 OA
ATOM     17  H   UNL     1      30.713  32.785 -20.343  1.00  0.00     0.212 HD
ENDBRANCH  12  16
ENDBRANCH   1  11
BRANCH   8  18
ATOM     18  C   UNL     1      35.359  30.768 -15.075  1.00  0.00     0.146 A 
ATOM     19  C   UNL     1      36.339  29.830 -14.859  1.00  0.00     0.116 A 
ATOM     20  N   UNL     1      35.565  31.847 -15.868  1.00  0.00    -0.195 NA
ATOM     21  C   UNL     1      37.547  30.089 -15.462  1.00  0.00     0.220 A 
ATOM     22  C   UNL     1      36.774  31.993 -16.412  1.00  0.00     0.225 A 
ATOM     23  N   UNL     1      37.796  31.164 -16.222  1.00  0.00    -0.177 NA
BRANCH  21  24
ATOM     24  O   UNL     1      38.538  29.148 -15.248  1.00  0.00    -0.481 OA
ATOM     25  C   UNL     1      38.205  27.856 -15.748  1.00  0.00     0.280 C 
ENDBRANCH  21  24
BRANCH  22  26
ATOM     26  N   UNL     1      36.989  33.107 -17.194  1.00  0.00    -0.368 N 
ATOM     27  H   UNL     1      37.936  33.438 -17.076  1.00  0.00     0.159 HD
ATOM     28  H   UNL     1      36.667  32.940 -18.137  1.00  0.00     0.159 HD
ENDBRANCH  22  26
ENDBRANCH   8  18
TORSDOF 6
ENDMDL
MODEL 5
REMARK VINA RESULT:    -6.919      2.123      7.035
REMARK INTER + INTRA:          -9.410
REMARK INTER:                  -8.702
REMARK INTRA:                  -0.708
REMARK UNBOUND:                -0.469
REMARK SMILES CC[C@](C)(O)C#Cc1cc2c(ccn2-c2cc(OC)nc(N)n2)cn1
REMARK SMILES IDX 7 1 8 2 9 3 10 4 11 5 12 6 13 7 14 8 24 9 25 10 6 11 3 12
REMARK SMILES IDX 4 13 2 14 1 15 5 16 15 18 16 19 23 20 17 21 21 22 20 23
REMARK SMILES IDX 18 24 19 25 22 26
REMARK H PARENT 5 17 22 27 22 28
ROOT
ATOM      1  C   UNL     1      32.996  30.792 -14.247  1.00  0.00    -0.044 C 
ATOM      2  C   UNL     1      34.127  31.173 -15.033  1.00  0.00     0.115 A 
ATOM      3  C   UNL     1      35.263  30.375 -15.068  1.00  0.00     0.065 A 
ATOM      4  C   UNL     1      36.317  30.827 -15.878  1.00  0.00     0.059 A 
ATOM      5  C   UNL     1      36.207  32.069 -16.526  1.00  0.00     0.018 A 
ATOM      6  C   UNL     1      37.448  32.337 -17.151  1.00  0.00     0.030 A 
ATOM      7  C   UNL     1      38.281  31.283 -16.877  1.00  0.00     0.094 A 
ATOM      8  N   UNL     1      37.581  30.310 -16.181  1.00  0.00    -0.301 N 
ATOM      9  C   UNL     1      35.011  32.796 -16.430  1.00  0.00     0.122 A 
ATOM     10  N   UNL     1      33.976  32.336 -15.694  1.00  0.00    -0.247 NA
ENDROOT
BRANCH   1  11
ATOM     11  C   UNL     1      32.044  30.476 -13.586  1.00  0.00    -0.062 C 
ATOM     12  C   UNL     1      30.886  30.080 -12.767  1.00  0.00     0.122 C 
ATOM     13  C   UNL     1      29.750  31.090 -12.925  1.00  0.00     0.057 C 
BRANCH  12  14
ATOM     14  C   UNL     1      31.284  29.865 -11.294  1.00  0.00     0.045 C 
ATOM     15  C   UNL     1      32.092  28.605 -11.014  1.00  0.00     0.008 C 
ENDBRANCH  12  14
BRANCH  12  16
ATOM     16  O   UNL     1      30.398  28.830 -13.265  1.00  0.00    -0.378 OA
ATOM     17  H   UNL     1      30.065  28.333 -12.497  1.00  0.00     0.212 HD
ENDBRANCH  12  16
ENDBRANCH   1  11
BRANCH   8  18
ATOM     18  C   UNL     1      38.146  29.028 -15.878  1.00  0.00     0.146 A 
ATOM     19  C   UNL     1      38.676  28.755 -14.640  1.00  0.00     0.116 A 
ATOM     20  N   UNL     1      38.086  28.089 -16.852  1.00  0.00    -0.195 NA
ATOM     21  C   UNL     1      39.178  27.485 -14.480  1.00  0.00     0.220 A 
ATOM     22  C   UNL     1      38.594  26.886 -16.584  1.00  0.00     0.225 A 
ATOM     23  N   UNL     1      39.169  26.544 -15.434  1.00  0.00    -0.177 NA
BRANCH  21  24
ATOM     24  O   UNL     1      39.714  27.204 -13.236  1.00  0.00    -0.481 OA
ATOM     25  C   UNL     1      39.681  28.315 -12.346  1.00  0.00     0.280 C 
ENDBRANCH  21  24
BRANCH  22  26
ATOM     26  N   UNL     1      38.558  25.942 -17.588  1.00  0.00    -0.368 N 
ATOM     27  H   UNL     1      39.467  25.858 -18.020  1.00  0.00     0.159 HD
ATOM     28  H   UNL     1      38.121  25.094 -17.255  1.00  0.00     0.159 HD
ENDBRANCH  22  26
ENDBRANCH   8  18
TORSDOF 6
ENDMDL
MODEL 6
REMARK VINA RESULT:    -6.871      2.915      4.444
REMARK INTER + INTRA:          -9.348
REMARK INTER:                  -8.812
REMARK INTRA:                  -0.536
REMARK UNBOUND:                -0.469
REMARK SMILES CC[C@](C)(O)C#Cc1cc2c(ccn2-c2cc(OC)nc(N)n2)cn1
REMARK SMILES IDX 7 1 8 2 9 3 10 4 11 5 12 6 13 7 14 8 24 9 25 10 6 11 3 12
REMARK SMILES IDX 4 13 2 14 1 15 5 16 15 18 16 19 23 20 17 21 21 22 20 23
REMARK SMILES IDX 18 24 19 25 22 26
REMARK H PARENT 5 17 22 27 22 28
ROOT
ATOM      1  C   UNL     1      40.682  27.050 -14.782  1.00  0.00    -0.044 C 
ATOM      2  C   UNL     1      39.652  27.195 -15.761  1.00  0.00     0.115 A 
ATOM      3  C   UNL     1      38.705  28.205 -15.646  1.00  0.00     0.065 A 
ATOM      4  C   UNL     1      37.741  28.273 -16.664  1.00  0.00     0.059 A 
ATOM      5  C   UNL     1      37.728  27.294 -17.672  1.00  0.00     0.018 A 
ATOM      6  C   UNL     1      36.584  27.521 -18.474  1.00  0.00     0.030 A 
ATOM      7  C   UNL     1      35.926  28.605 -17.953  1.00  0.00     0.094 A 
ATOM      8  N   UNL     1      36.665  29.134 -16.906  1.00  0.00    -0.301 N 
ATOM      9  C   UNL     1      38.735  26.318 -17.700  1.00  0.00     0.122 A 
ATOM     10  N   UNL     1      39.695  26.283 -16.751  1.00  0.00    -0.247 NA
ENDROOT
BRANCH   1  11
ATOM     11  C   UNL     1      41.549  26.923 -13.959  1.00  0.00    -0.062 C 
ATOM     12  C   UNL     1      42.602  26.776 -12.941  1.00  0.00     0.122 C 
ATOM     13  C   UNL     1      43.534  25.620 -13.301  1.00  0.00     0.057 C 
BRANCH  12  14
ATOM     14  C   UNL     1      42.005  26.636 -11.528  1.00  0.00     0.045 C 
ATOM     15  C   UNL     1      40.524  26.970 -11.409  1.00  0.00     0.008 C 
ENDBRANCH  12  14
BRANCH  12  16
ATOM     16  O   UNL     1      43.398  27.966 -12.953  1.00  0.00    -0.378 OA
ATOM     17  H   UNL     1      43.239  28.402 -13.808  1.00  0.00     0.212 HD
ENDBRANCH  12  16
ENDBRANCH   1  11
BRANCH   8  18
ATOM     18  C   UNL     1      36.303  30.359 -16.255  1.00  0.00     0.146 A 
ATOM     19  C   UNL     1      35.899  30.378 -14.942  1.00  0.00     0.116 A 
ATOM     20  N   UNL     1      36.427  31.496 -16.981  1.00  0.00    -0.195 NA
ATOM     21  C   UNL     1      35.588  31.619 -14.438  1.00  0.00     0.220 A 
ATOM     22  C   UNL     1      36.109  32.647 -16.388  1.00  0.00     0.225 A 
ATOM     23  N   UNL     1      35.664  32.759 -15.140  1.00  0.00    -0.177 NA
BRANCH  21  24
ATOM     24  O   UNL     1      35.180  31.646 -13.117  1.00  0.00    -0.481 OA
ATOM     25  C   UNL     1      33.969  30.930 -12.889  1.00  0.00     0.280 C 
ENDBRANCH  21  24
BRANCH  22  26
ATOM     26  N   UNL     1      36.207  33.798 -17.139  1.00  0.00    -0.368 N 
ATOM     27  H   UNL     1      36.439  34.582 -16.546  1.00  0.00     0.159 HD
ATOM     28  H   UNL     1      36.790  33.638 -17.949  1.00  0.00     0.159 HD
ENDBRANCH  22  26
ENDBRANCH   8  18
TORSDOF 6
ENDMDL
MODEL 7
REMARK VINA RESULT:    -6.866      3.570      8.887
REMARK INTER + INTRA:          -9.342
REMARK INTER:                  -8.799
REMARK INTRA:                  -0.542
REMARK UNBOUND:                -0.469
REMARK SMILES CC[C@](C)(O)C#Cc1cc2c(ccn2-c2cc(OC)nc(N)n2)cn1
REMARK SMILES IDX 7 1 8 2 9 3 10 4 11 5 12 6 13 7 14 8 24 9 25 10 6 11 3 12
REMARK SMILES IDX 4 13 2 14 1 15 5 16 15 18 16 19 23 20 17 21 21 22 20 23
REMARK SMILES IDX 18 24 19 25 22 26
REMARK H PARENT 5 17 22 27 22 28
ROOT
ATOM      1  C   UNL     1      36.768  29.223 -16.120  1.00  0.00    -0.044 C 
ATOM      2  C   UNL     1      37.696  28.213 -16.519  1.00  0.00     0.115 A 
ATOM      3  C   UNL     1      38.818  27.941 -15.747  1.00  0.00     0.065 A 
ATOM      4  C   UNL     1      39.665  26.924 -16.216  1.00  0.00     0.059 A 
ATOM      5  C   UNL     1      39.391  26.309 -17.449  1.00  0.00     0.018 A 
ATOM      6  C   UNL     1      40.465  25.434 -17.739  1.00  0.00     0.030 A 
ATOM      7  C   UNL     1      41.362  25.529 -16.706  1.00  0.00     0.094 A 
ATOM      8  N   UNL     1      40.849  26.362 -15.724  1.00  0.00    -0.301 N 
ATOM      9  C   UNL     1      38.225  26.654 -18.149  1.00  0.00     0.122 A 
ATOM     10  N   UNL     1      37.381  27.595 -17.672  1.00  0.00    -0.247 NA
ENDROOT
BRANCH   1  11
ATOM     11  C   UNL     1      35.985  30.072 -15.789  1.00  0.00    -0.062 C 
ATOM     12  C   UNL     1      35.037  31.121 -15.376  1.00  0.00     0.122 C 
ATOM     13  C   UNL     1      33.789  31.089 -16.257  1.00  0.00     0.057 C 
BRANCH  12  14
ATOM     14  C   UNL     1      35.707  32.508 -15.352  1.00  0.00     0.045 C 
ATOM     15  C   UNL     1      35.466  33.371 -16.583  1.00  0.00     0.008 C 
ENDBRANCH  12  14
BRANCH  12  16
ATOM     16  O   UNL     1      34.608  30.830 -14.042  1.00  0.00    -0.378 OA
ATOM     17  H   UNL     1      33.752  31.275 -13.919  1.00  0.00     0.212 HD
ENDBRANCH  12  16
ENDBRANCH   1  11
BRANCH   8  18
ATOM     18  C   UNL     1      41.496  26.544 -14.458  1.00  0.00     0.146 A 
ATOM     19  C   UNL     1      40.774  26.638 -13.293  1.00  0.00     0.116 A 
ATOM     20  N   UNL     1      42.850  26.569 -14.464  1.00  0.00    -0.195 NA
ATOM     21  C   UNL     1      41.519  26.805 -12.149  1.00  0.00     0.220 A 
ATOM     22  C   UNL     1      43.471  26.725 -13.294  1.00  0.00     0.225 A 
ATOM     23  N   UNL     1      42.858  26.871 -12.124  1.00  0.00    -0.177 NA
BRANCH  21  24
ATOM     24  O   UNL     1      40.799  26.901 -10.972  1.00  0.00    -0.481 OA
ATOM     25  C   UNL     1      39.394  27.006 -11.181  1.00  0.00     0.280 C 
ENDBRANCH  21  24
BRANCH  22  26
ATOM     26  N   UNL     1      44.848  26.779 -13.307  1.00  0.00    -0.368 N 
ATOM     27  H   UNL     1      45.169  27.601 -12.816  1.00  0.00     0.159 HD
ATOM     28  H   UNL     1      45.236  25.889 -13.029  1.00  0.00     0.159 HD
ENDBRANCH  22  26
ENDBRANCH   8  18
TORSDOF 6
ENDMDL
MODEL 8
REMARK VINA RESULT:    -6.504      3.215      4.773
REMARK INTER + INTRA:          -8.873
REMARK INTER:                  -8.271
REMARK INTRA:                  -0.602
REMARK UNBOUND:                -0.469
REMARK SMILES CC[C@](C)(O)C#Cc1cc2c(ccn2-c2cc(OC)nc(N)n2)cn1
REMARK SMILES IDX 7 1 8 2 9 3 10 4 11 5 12 6 13 7 14 8 24 9 25 10 6 11 3 12
REMARK SMILES IDX 4 13 2 14 1 15 5 16 15 18 16 19 23 20 17 21 21 22 20 23
REMARK SMILES IDX 18 24 19 25 22 26
REMARK H PARENT 5 17 22 27 22 28
ROOT
ATOM      1  C   UNL     1      40.684  26.973 -14.748  1.00  0.00    -0.044 C 
ATOM      2  C   UNL     1      39.658  27.175 -15.722  1.00  0.00     0.115 A 
ATOM      3  C   UNL     1      38.723  28.189 -15.563  1.00  0.00     0.065 A 
ATOM      4  C   UNL     1      37.762  28.316 -16.578  1.00  0.00     0.059 A 
ATOM      5  C   UNL     1      37.741  27.384 -17.631  1.00  0.00     0.018 A 
ATOM      6  C   UNL     1      36.601  27.661 -18.424  1.00  0.00     0.030 A 
ATOM      7  C   UNL     1      35.955  28.728 -17.855  1.00  0.00     0.094 A 
ATOM      8  N   UNL     1      36.696  29.199 -16.783  1.00  0.00    -0.301 N 
ATOM      9  C   UNL     1      38.736  26.399 -17.701  1.00  0.00     0.122 A 
ATOM     10  N   UNL     1      39.694  26.310 -16.753  1.00  0.00    -0.247 NA
ENDROOT
BRANCH   1  11
ATOM     11  C   UNL     1      41.547  26.799 -13.931  1.00  0.00    -0.062 C 
ATOM     12  C   UNL     1      42.616  26.589 -12.940  1.00  0.00     0.122 C 
ATOM     13  C   UNL     1      42.053  26.676 -11.522  1.00  0.00     0.057 C 
BRANCH  12  14
ATOM     14  C   UNL     1      43.794  27.554 -13.168  1.00  0.00     0.045 C 
ATOM     15  C   UNL     1      45.162  26.897 -13.292  1.00  0.00     0.008 C 
ENDBRANCH  12  14
BRANCH  12  16
ATOM     16  O   UNL     1      43.116  25.257 -13.104  1.00  0.00    -0.378 OA
ATOM     17  H   UNL     1      43.966  25.217 -12.632  1.00  0.00     0.212 HD
ENDBRANCH  12  16
ENDBRANCH   1  11
BRANCH   8  18
ATOM     18  C   UNL     1      36.347  30.396 -16.076  1.00  0.00     0.146 A 
ATOM     19  C   UNL     1      36.352  31.622 -16.698  1.00  0.00     0.116 A 
ATOM     20  N   UNL     1      35.965  30.252 -14.785  1.00  0.00    -0.195 NA
ATOM     21  C   UNL     1      35.990  32.686 -15.906  1.00  0.00     0.220 A 
ATOM     22  C   UNL     1      35.623  31.353 -14.114  1.00  0.00     0.225 A 
ATOM     23  N   UNL     1      35.643  32.584 -14.616  1.00  0.00    -0.177 NA
BRANCH  21  24
ATOM     24  O   UNL     1      35.994  33.923 -16.526  1.00  0.00    -0.481 OA
ATOM     25  C   UNL     1      35.140  33.984 -17.664  1.00  0.00     0.280 C 
ENDBRANCH  21  24
BRANCH  22  26
ATOM     26  N   UNL     1      35.264  31.206 -12.791  1.00  0.00    -0.368 N 
ATOM     27  H   UNL     1      35.157  32.111 -12.357  1.00  0.00     0.159 HD
ATOM     28  H   UNL     1      34.495  30.556 -12.708  1.00  0.00     0.159 HD
ENDBRANCH  22  26
ENDBRANCH   8  18
TORSDOF 6
ENDMDL
