MODEL 1
REMARK VINA RESULT:    -9.937      0.000      0.000
REMARK INTER + INTRA:         -11.554
REMARK INTER:                 -11.680
REMARK INTRA:                   0.126
REMARK UNBOUND:                 0.126
REMARK SMILES O=c1c([O-])c(-c2ccc(O)c(O)c2)oc2cc(O)cc(O)c12
REMARK SMILES IDX 1 1 2 2 3 3 4 4 5 5 14 6 15 7 16 8 17 9 19 10 20 11 22 12
REMARK SMILES IDX 6 13 7 14 13 15 8 16 11 17 9 18 12 19 10 21 21 23 18 25
REMARK H PARENT 12 20 10 22 21 24 18 26
ROOT
ATOM      1  O   UNL     1      39.951  26.292 -17.401  1.00  0.00    -0.290 OA
ATOM      2  C   UNL     1      39.327  27.006 -16.610  1.00  0.00     0.189 A 
ATOM      3  C   UNL     1      38.102  27.848 -16.963  1.00  0.00    -0.014 A 
ATOM      4  O   UNL     1      37.745  27.796 -18.180  1.00  0.00    -0.867 OA
ATOM      5  C   UNL     1      37.574  28.538 -15.912  1.00  0.00     0.130 A 
ATOM      6  O   UNL     1      38.049  28.541 -14.611  1.00  0.00    -0.456 OA
ATOM      7  C   UNL     1      39.148  27.801 -14.297  1.00  0.00     0.146 A 
ATOM      8  C   UNL     1      39.581  27.851 -12.968  1.00  0.00     0.094 A 
ATOM      9  C   UNL     1      40.699  27.115 -12.583  1.00  0.00     0.123 A 
ATOM     10  C   UNL     1      41.386  26.334 -13.504  1.00  0.00     0.093 A 
ATOM     11  C   UNL     1      40.945  26.293 -14.825  1.00  0.00     0.134 A 
ATOM     12  C   UNL     1      39.820  27.029 -15.227  1.00  0.00     0.106 A 
ENDROOT
BRANCH   5  13
ATOM     13  C   UNL     1      36.370  29.414 -16.036  1.00  0.00     0.021 A 
ATOM     14  C   UNL     1      35.763  29.949 -14.882  1.00  0.00     0.016 A 
ATOM     15  C   UNL     1      35.784  29.682 -17.283  1.00  0.00     0.062 A 
ATOM     16  C   UNL     1      34.611  30.737 -14.967  1.00  0.00     0.051 A 
ATOM     17  C   UNL     1      34.649  30.482 -17.364  1.00  0.00     0.158 A 
ATOM     18  C   UNL     1      34.063  30.997 -16.213  1.00  0.00     0.157 A 
BRANCH  17  19
ATOM     19  O   UNL     1      34.085  30.795 -18.573  1.00  0.00    -0.504 OA
ATOM     20  H   UNL     1      33.584  31.620 -18.425  1.00  0.00     0.293 HD
ENDBRANCH  17  19
BRANCH  18  21
ATOM     21  O   UNL     1      32.943  31.773 -16.311  1.00  0.00    -0.504 OA
ATOM     22  H   UNL     1      32.605  31.797 -15.393  1.00  0.00     0.293 HD
ENDBRANCH  18  21
ENDBRANCH   5  13
BRANCH  11  23
ATOM     23  O   UNL     1      41.662  25.504 -15.690  1.00  0.00    -0.507 OA
ATOM     24  H   UNL     1      41.287  25.676 -16.590  1.00  0.00     0.293 HD
ENDBRANCH  11  23
BRANCH   9  25
ATOM     25  O   UNL     1      41.150  27.137 -11.296  1.00  0.00    -0.508 OA
ATOM     26  H   UNL     1      40.431  26.834 -10.716  1.00  0.00     0.293 HD
ENDBRANCH   9  25
TORSDOF 5
ENDMDL
MODEL 2
REMARK VINA RESULT:    -9.600      5.406      8.538
REMARK INTER + INTRA:         -11.158
REMARK INTER:                 -10.836
REMARK INTRA:                  -0.322
REMARK UNBOUND:                 0.126
REMARK SMILES O=c1c([O-])c(-c2ccc(O)c(O)c2)oc2cc(O)cc(O)c12
REMARK SMILES IDX 1 1 2 2 3 3 4 4 5 5 14 6 15 7 16 8 17 9 19 10 20 11 22 12
REMARK SMILES IDX 6 13 7 14 13 15 8 16 11 17 9 18 12 19 10 21 21 23 18 25
REMARK H PARENT 12 20 10 22 21 24 18 26
ROOT
ATOM      1  O   UNL     1      32.237  30.685 -15.296  1.00  0.00    -0.290 OA
ATOM      2  C   UNL     1      32.238  31.593 -16.133  1.00  0.00     0.189 A 
ATOM      3  C   UNL     1      30.990  32.261 -16.708  1.00  0.00    -0.014 A 
ATOM      4  O   UNL     1      29.887  31.801 -16.280  1.00  0.00    -0.867 OA
ATOM      5  C   UNL     1      31.248  33.254 -17.605  1.00  0.00     0.130 A 
ATOM      6  O   UNL     1      32.499  33.677 -18.025  1.00  0.00    -0.456 OA
ATOM      7  C   UNL     1      33.613  33.075 -17.523  1.00  0.00     0.146 A 
ATOM      8  C   UNL     1      34.845  33.544 -17.989  1.00  0.00     0.094 A 
ATOM      9  C   UNL     1      36.021  32.971 -17.512  1.00  0.00     0.123 A 
ATOM     10  C   UNL     1      35.982  31.940 -16.582  1.00  0.00     0.093 A 
ATOM     11  C   UNL     1      34.748  31.482 -16.125  1.00  0.00     0.134 A 
ATOM     12  C   UNL     1      33.555  32.051 -16.596  1.00  0.00     0.106 A 
ENDROOT
BRANCH   5  13
ATOM     13  C   UNL     1      30.172  34.042 -18.280  1.00  0.00     0.021 A 
ATOM     14  C   UNL     1      29.911  33.853 -19.652  1.00  0.00     0.016 A 
ATOM     15  C   UNL     1      29.436  35.018 -17.590  1.00  0.00     0.062 A 
ATOM     16  C   UNL     1      28.939  34.607 -20.317  1.00  0.00     0.051 A 
ATOM     17  C   UNL     1      28.457  35.752 -18.251  1.00  0.00     0.158 A 
ATOM     18  C   UNL     1      28.219  35.554 -19.606  1.00  0.00     0.157 A 
BRANCH  17  19
ATOM     19  O   UNL     1      27.695  36.678 -17.589  1.00  0.00    -0.504 OA
ATOM     20  H   UNL     1      28.263  37.026 -16.876  1.00  0.00     0.293 HD
ENDBRANCH  17  19
BRANCH  18  21
ATOM     21  O   UNL     1      27.260  36.291 -20.241  1.00  0.00    -0.504 OA
ATOM     22  H   UNL     1      26.598  35.620 -20.504  1.00  0.00     0.293 HD
ENDBRANCH  18  21
ENDBRANCH   5  13
BRANCH  11  23
ATOM     23  O   UNL     1      34.771  30.463 -15.205  1.00  0.00    -0.507 OA
ATOM     24  H   UNL     1      33.826  30.294 -14.962  1.00  0.00     0.293 HD
ENDBRANCH  11  23
BRANCH   9  25
ATOM     25  O   UNL     1      37.242  33.402 -17.942  1.00  0.00    -0.508 OA
ATOM     26  H   UNL     1      37.369  34.314 -17.632  1.00  0.00     0.293 HD
ENDBRANCH   9  25
TORSDOF 5
ENDMDL
MODEL 3
REMARK VINA RESULT:    -9.244      1.244      6.713
REMARK INTER + INTRA:         -10.739
REMARK INTER:                 -10.712
REMARK INTRA:                  -0.027
REMARK UNBOUND:                 0.126
REMARK SMILES O=c1c([O-])c(-c2ccc(O)c(O)c2)oc2cc(O)cc(O)c12
REMARK SMILES IDX 1 1 2 2 3 3 4 4 5 5 14 6 15 7 16 8 17 9 19 10 20 11 22 12
REMARK SMILES IDX 6 13 7 14 13 15 8 16 11 17 9 18 12 19 10 21 21 23 18 25
REMARK H PARENT 12 20 10 22 21 24 18 26
ROOT
ATOM      1  O   UNL     1      37.476  27.374 -18.183  1.00  0.00    -0.290 OA
ATOM      2  C   UNL     1      37.762  27.752 -17.041  1.00  0.00     0.189 A 
ATOM      3  C   UNL     1      38.885  27.179 -16.180  1.00  0.00    -0.014 A 
ATOM      4  O   UNL     1      39.537  26.227 -16.708  1.00  0.00    -0.867 OA
ATOM      5  C   UNL     1      39.018  27.775 -14.961  1.00  0.00     0.130 A 
ATOM      6  O   UNL     1      38.239  28.808 -14.464  1.00  0.00    -0.456 OA
ATOM      7  C   UNL     1      37.229  29.312 -15.225  1.00  0.00     0.146 A 
ATOM      8  C   UNL     1      36.477  30.350 -14.665  1.00  0.00     0.094 A 
ATOM      9  C   UNL     1      35.431  30.910 -15.395  1.00  0.00     0.123 A 
ATOM     10  C   UNL     1      35.129  30.449 -16.670  1.00  0.00     0.093 A 
ATOM     11  C   UNL     1      35.886  29.415 -17.217  1.00  0.00     0.134 A 
ATOM     12  C   UNL     1      36.942  28.842 -16.493  1.00  0.00     0.106 A 
ENDROOT
BRANCH   5  13
ATOM     13  C   UNL     1      40.058  27.374 -13.967  1.00  0.00     0.021 A 
ATOM     14  C   UNL     1      39.812  27.522 -12.586  1.00  0.00     0.016 A 
ATOM     15  C   UNL     1      41.314  26.896 -14.372  1.00  0.00     0.062 A 
ATOM     16  C   UNL     1      40.785  27.193 -11.637  1.00  0.00     0.051 A 
ATOM     17  C   UNL     1      42.271  26.553 -13.424  1.00  0.00     0.158 A 
ATOM     18  C   UNL     1      42.010  26.711 -12.067  1.00  0.00     0.157 A 
BRANCH  17  19
ATOM     19  O   UNL     1      43.487  26.042 -13.793  1.00  0.00    -0.504 OA
ATOM     20  H   UNL     1      43.647  25.285 -13.199  1.00  0.00     0.293 HD
ENDBRANCH  17  19
BRANCH  18  21
ATOM     21  O   UNL     1      42.966  26.378 -11.149  1.00  0.00    -0.504 OA
ATOM     22  H   UNL     1      42.443  26.102 -10.370  1.00  0.00     0.293 HD
ENDBRANCH  18  21
ENDBRANCH   5  13
BRANCH  11  23
ATOM     23  O   UNL     1      35.542  29.001 -18.480  1.00  0.00    -0.507 OA
ATOM     24  H   UNL     1      34.626  29.339 -18.639  1.00  0.00     0.293 HD
ENDBRANCH  11  23
BRANCH   9  25
ATOM     25  O   UNL     1      34.676  31.924 -14.882  1.00  0.00    -0.508 OA
ATOM     26  H   UNL     1      35.162  32.320 -14.140  1.00  0.00     0.293 HD
ENDBRANCH   9  25
TORSDOF 5
ENDMDL
MODEL 4
REMARK VINA RESULT:    -9.189     17.317     18.478
REMARK INTER + INTRA:         -10.674
REMARK INTER:                 -10.598
REMARK INTRA:                  -0.077
REMARK UNBOUND:                 0.126
REMARK SMILES O=c1c([O-])c(-c2ccc(O)c(O)c2)oc2cc(O)cc(O)c12
REMARK SMILES IDX 1 1 2 2 3 3 4 4 5 5 14 6 15 7 16 8 17 9 19 10 20 11 22 12
REMARK SMILES IDX 6 13 7 14 13 15 8 16 11 17 9 18 12 19 10 21 21 23 18 25
REMARK H PARENT 12 20 10 22 21 24 18 26
ROOT
ATOM      1  O   UNL     1      53.884  18.127 -19.513  1.00  0.00    -0.290 OA
ATOM      2  C   UNL     1      53.566  19.031 -20.292  1.00  0.00     0.189 A 
ATOM      3  C   UNL     1      53.005  18.824 -21.697  1.00  0.00    -0.014 A 
ATOM      4  O   UNL     1      52.895  17.613 -22.061  1.00  0.00    -0.867 OA
ATOM      5  C   UNL     1      52.709  19.979 -22.359  1.00  0.00     0.130 A 
ATOM      6  O   UNL     1      52.881  21.267 -21.878  1.00  0.00    -0.456 OA
ATOM      7  C   UNL     1      53.392  21.454 -20.630  1.00  0.00     0.146 A 
ATOM      8  C   UNL     1      53.545  22.777 -20.205  1.00  0.00     0.094 A 
ATOM      9  C   UNL     1      54.062  23.035 -18.938  1.00  0.00     0.123 A 
ATOM     10  C   UNL     1      54.424  21.993 -18.094  1.00  0.00     0.093 A 
ATOM     11  C   UNL     1      54.266  20.679 -18.529  1.00  0.00     0.134 A 
ATOM     12  C   UNL     1      53.747  20.404 -19.803  1.00  0.00     0.106 A 
ENDROOT
BRANCH   5  13
ATOM     13  C   UNL     1      52.142  20.003 -23.741  1.00  0.00     0.021 A 
ATOM     14  C   UNL     1      52.627  19.111 -24.720  1.00  0.00     0.016 A 
ATOM     15  C   UNL     1      51.163  20.936 -24.116  1.00  0.00     0.062 A 
ATOM     16  C   UNL     1      52.144  19.142 -26.032  1.00  0.00     0.051 A 
ATOM     17  C   UNL     1      50.672  20.950 -25.417  1.00  0.00     0.158 A 
ATOM     18  C   UNL     1      51.167  20.065 -26.369  1.00  0.00     0.157 A 
BRANCH  17  19
ATOM     19  O   UNL     1      49.685  21.821 -25.795  1.00  0.00    -0.504 OA
ATOM     20  H   UNL     1      48.941  21.658 -25.185  1.00  0.00     0.293 HD
ENDBRANCH  17  19
BRANCH  18  21
ATOM     21  O   UNL     1      50.680  20.099 -27.645  1.00  0.00    -0.504 OA
ATOM     22  H   UNL     1      49.717  19.981 -27.521  1.00  0.00     0.293 HD
ENDBRANCH  18  21
ENDBRANCH   5  13
BRANCH  11  23
ATOM     23  O   UNL     1      54.641  19.690 -17.653  1.00  0.00    -0.507 OA
ATOM     24  H   UNL     1      55.354  20.080 -17.089  1.00  0.00     0.293 HD
ENDBRANCH  11  23
BRANCH   9  25
ATOM     25  O   UNL     1      54.224  24.313 -18.488  1.00  0.00    -0.508 OA
ATOM     26  H   UNL     1      53.781  24.391 -17.627  1.00  0.00     0.293 HD
ENDBRANCH   9  25
TORSDOF 5
ENDMDL
MODEL 5
REMARK VINA RESULT:    -9.052      2.329      4.766
REMARK INTER + INTRA:         -10.514
REMARK INTER:                 -10.182
REMARK INTRA:                  -0.332
REMARK UNBOUND:                 0.126
REMARK SMILES O=c1c([O-])c(-c2ccc(O)c(O)c2)oc2cc(O)cc(O)c12
REMARK SMILES IDX 1 1 2 2 3 3 4 4 5 5 14 6 15 7 16 8 17 9 19 10 20 11 22 12
REMARK SMILES IDX 6 13 7 14 13 15 8 16 11 17 9 18 12 19 10 21 21 23 18 25
REMARK H PARENT 12 20 10 22 21 24 18 26
ROOT
ATOM      1  O   UNL     1      36.879  30.124 -13.411  1.00  0.00    -0.290 OA
ATOM      2  C   UNL     1      36.313  30.138 -14.509  1.00  0.00     0.189 A 
ATOM      3  C   UNL     1      35.106  31.003 -14.866  1.00  0.00    -0.014 A 
ATOM      4  O   UNL     1      34.669  31.734 -13.925  1.00  0.00    -0.867 OA
ATOM      5  C   UNL     1      34.670  30.857 -16.150  1.00  0.00     0.130 A 
ATOM      6  O   UNL     1      35.209  30.013 -17.108  1.00  0.00    -0.456 OA
ATOM      7  C   UNL     1      36.278  29.232 -16.788  1.00  0.00     0.146 A 
ATOM      8  C   UNL     1      36.771  28.399 -17.797  1.00  0.00     0.094 A 
ATOM      9  C   UNL     1      37.864  27.577 -17.534  1.00  0.00     0.123 A 
ATOM     10  C   UNL     1      38.466  27.576 -16.282  1.00  0.00     0.093 A 
ATOM     11  C   UNL     1      37.965  28.411 -15.285  1.00  0.00     0.134 A 
ATOM     12  C   UNL     1      36.865  29.245 -15.537  1.00  0.00     0.106 A 
ENDROOT
BRANCH   5  13
ATOM     13  C   UNL     1      33.510  31.615 -16.707  1.00  0.00     0.021 A 
ATOM     14  C   UNL     1      33.726  32.805 -17.434  1.00  0.00     0.016 A 
ATOM     15  C   UNL     1      32.188  31.203 -16.482  1.00  0.00     0.062 A 
ATOM     16  C   UNL     1      32.655  33.556 -17.930  1.00  0.00     0.051 A 
ATOM     17  C   UNL     1      31.128  31.943 -16.994  1.00  0.00     0.158 A 
ATOM     18  C   UNL     1      31.361  33.115 -17.703  1.00  0.00     0.157 A 
BRANCH  17  19
ATOM     19  O   UNL     1      29.830  31.536 -16.826  1.00  0.00    -0.504 OA
ATOM     20  H   UNL     1      29.492  31.355 -17.723  1.00  0.00     0.293 HD
ENDBRANCH  17  19
BRANCH  18  21
ATOM     21  O   UNL     1      30.307  33.835 -18.190  1.00  0.00    -0.504 OA
ATOM     22  H   UNL     1      29.549  33.507 -17.666  1.00  0.00     0.293 HD
ENDBRANCH  18  21
ENDBRANCH   5  13
BRANCH  11  23
ATOM     23  O   UNL     1      38.600  28.369 -14.069  1.00  0.00    -0.507 OA
ATOM     24  H   UNL     1      38.650  29.306 -13.754  1.00  0.00     0.293 HD
ENDBRANCH  11  23
BRANCH   9  25
ATOM     25  O   UNL     1      38.375  26.752 -18.493  1.00  0.00    -0.508 OA
ATOM     26  H   UNL     1      38.749  25.970 -18.054  1.00  0.00     0.293 HD
ENDBRANCH   9  25
TORSDOF 5
ENDMDL
MODEL 6
REMARK VINA RESULT:    -8.906     17.390     18.582
REMARK INTER + INTRA:         -10.342
REMARK INTER:                 -10.250
REMARK INTRA:                  -0.092
REMARK UNBOUND:                 0.126
REMARK SMILES O=c1c([O-])c(-c2ccc(O)c(O)c2)oc2cc(O)cc(O)c12
REMARK SMILES IDX 1 1 2 2 3 3 4 4 5 5 14 6 15 7 16 8 17 9 19 10 20 11 22 12
REMARK SMILES IDX 6 13 7 14 13 15 8 16 11 17 9 18 12 19 10 21 21 23 18 25
REMARK H PARENT 12 20 10 22 21 24 18 26
ROOT
ATOM      1  O   UNL     1      53.806  22.678 -19.489  1.00  0.00    -0.290 OA
ATOM      2  C   UNL     1      53.541  21.703 -20.200  1.00  0.00     0.189 A 
ATOM      3  C   UNL     1      52.953  21.775 -21.609  1.00  0.00    -0.014 A 
ATOM      4  O   UNL     1      52.714  22.947 -22.034  1.00  0.00    -0.867 OA
ATOM      5  C   UNL     1      52.766  20.562 -22.201  1.00  0.00     0.130 A 
ATOM      6  O   UNL     1      53.045  19.325 -21.644  1.00  0.00    -0.456 OA
ATOM      7  C   UNL     1      53.558  19.257 -20.384  1.00  0.00     0.146 A 
ATOM      8  C   UNL     1      53.814  17.980 -19.877  1.00  0.00     0.094 A 
ATOM      9  C   UNL     1      54.341  17.844 -18.595  1.00  0.00     0.123 A 
ATOM     10  C   UNL     1      54.613  18.962 -17.817  1.00  0.00     0.093 A 
ATOM     11  C   UNL     1      54.354  20.230 -18.334  1.00  0.00     0.134 A 
ATOM     12  C   UNL     1      53.823  20.381 -19.625  1.00  0.00     0.106 A 
ENDROOT
BRANCH   5  13
ATOM     13  C   UNL     1      52.211  20.406 -23.580  1.00  0.00     0.021 A 
ATOM     14  C   UNL     1      52.787  19.480 -24.473  1.00  0.00     0.016 A 
ATOM     15  C   UNL     1      51.150  21.203 -24.038  1.00  0.00     0.062 A 
ATOM     16  C   UNL     1      52.314  19.345 -25.783  1.00  0.00     0.051 A 
ATOM     17  C   UNL     1      50.671  21.051 -25.334  1.00  0.00     0.158 A 
ATOM     18  C   UNL     1      51.256  20.136 -26.202  1.00  0.00     0.157 A 
BRANCH  17  19
ATOM     19  O   UNL     1      49.608  21.786 -25.790  1.00  0.00    -0.504 OA
ATOM     20  H   UNL     1      49.403  21.432 -26.676  1.00  0.00     0.293 HD
ENDBRANCH  17  19
BRANCH  18  21
ATOM     21  O   UNL     1      50.778  20.007 -27.475  1.00  0.00    -0.504 OA
ATOM     22  H   UNL     1      50.087  19.320 -27.388  1.00  0.00     0.293 HD
ENDBRANCH  18  21
ENDBRANCH   5  13
BRANCH  11  23
ATOM     23  O   UNL     1      54.642  21.298 -17.522  1.00  0.00    -0.507 OA
ATOM     24  H   UNL     1      53.777  21.599 -17.149  1.00  0.00     0.293 HD
ENDBRANCH  11  23
BRANCH   9  25
ATOM     25  O   UNL     1      54.605  16.614 -18.067  1.00  0.00    -0.508 OA
ATOM     26  H   UNL     1      54.481  15.950 -18.764  1.00  0.00     0.293 HD
ENDBRANCH   9  25
TORSDOF 5
ENDMDL
MODEL 7
REMARK VINA RESULT:    -8.840      1.366      6.548
REMARK INTER + INTRA:         -10.264
REMARK INTER:                 -10.377
REMARK INTRA:                   0.112
REMARK UNBOUND:                 0.126
REMARK SMILES O=c1c([O-])c(-c2ccc(O)c(O)c2)oc2cc(O)cc(O)c12
REMARK SMILES IDX 1 1 2 2 3 3 4 4 5 5 14 6 15 7 16 8 17 9 19 10 20 11 22 12
REMARK SMILES IDX 6 13 7 14 13 15 8 16 11 17 9 18 12 19 10 21 21 23 18 25
REMARK H PARENT 12 20 10 22 21 24 18 26
ROOT
ATOM      1  O   UNL     1      35.433  29.396 -18.186  1.00  0.00    -0.290 OA
ATOM      2  C   UNL     1      36.127  29.217 -17.181  1.00  0.00     0.189 A 
ATOM      3  C   UNL     1      37.337  28.288 -17.100  1.00  0.00    -0.014 A 
ATOM      4  O   UNL     1      37.600  27.653 -18.167  1.00  0.00    -0.867 OA
ATOM      5  C   UNL     1      37.954  28.274 -15.885  1.00  0.00     0.130 A 
ATOM      6  O   UNL     1      37.577  28.998 -14.765  1.00  0.00    -0.456 OA
ATOM      7  C   UNL     1      36.492  29.818 -14.831  1.00  0.00     0.146 A 
ATOM      8  C   UNL     1      36.162  30.518 -13.666  1.00  0.00     0.094 A 
ATOM      9  C   UNL     1      35.063  31.374 -13.669  1.00  0.00     0.123 A 
ATOM     10  C   UNL     1      34.295  31.539 -14.815  1.00  0.00     0.093 A 
ATOM     11  C   UNL     1      34.635  30.837 -15.969  1.00  0.00     0.134 A 
ATOM     12  C   UNL     1      35.740  29.971 -15.980  1.00  0.00     0.106 A 
ENDROOT
BRANCH   5  13
ATOM     13  C   UNL     1      39.160  27.442 -15.593  1.00  0.00     0.021 A 
ATOM     14  C   UNL     1      39.647  27.339 -14.274  1.00  0.00     0.016 A 
ATOM     15  C   UNL     1      39.866  26.790 -16.617  1.00  0.00     0.062 A 
ATOM     16  C   UNL     1      40.799  26.601 -13.981  1.00  0.00     0.051 A 
ATOM     17  C   UNL     1      40.999  26.042 -16.317  1.00  0.00     0.158 A 
ATOM     18  C   UNL     1      41.466  25.958 -15.010  1.00  0.00     0.157 A 
BRANCH  17  19
ATOM     19  O   UNL     1      41.679  25.360 -17.292  1.00  0.00    -0.504 OA
ATOM     20  H   UNL     1      42.162  24.650 -16.829  1.00  0.00     0.293 HD
ENDBRANCH  17  19
BRANCH  18  21
ATOM     21  O   UNL     1      42.587  25.226 -14.736  1.00  0.00    -0.504 OA
ATOM     22  H   UNL     1      42.942  25.653 -13.931  1.00  0.00     0.293 HD
ENDBRANCH  18  21
ENDBRANCH   5  13
BRANCH  11  23
ATOM     23  O   UNL     1      33.842  31.039 -17.071  1.00  0.00    -0.507 OA
ATOM     24  H   UNL     1      33.704  30.147 -17.476  1.00  0.00     0.293 HD
ENDBRANCH  11  23
BRANCH   9  25
ATOM     25  O   UNL     1      34.710  32.075 -12.553  1.00  0.00    -0.508 OA
ATOM     26  H   UNL     1      34.497  31.439 -11.850  1.00  0.00     0.293 HD
ENDBRANCH   9  25
TORSDOF 5
ENDMDL
MODEL 8
REMARK VINA RESULT:    -8.694      1.637      2.258
REMARK INTER + INTRA:         -10.094
REMARK INTER:                  -9.763
REMARK INTRA:                  -0.331
REMARK UNBOUND:                 0.126
REMARK SMILES O=c1c([O-])c(-c2ccc(O)c(O)c2)oc2cc(O)cc(O)c12
REMARK SMILES IDX 1 1 2 2 3 3 4 4 5 5 14 6 15 7 16 8 17 9 19 10 20 11 22 12
REMARK SMILES IDX 6 13 7 14 13 15 8 16 11 17 9 18 12 19 10 21 21 23 18 25
REMARK H PARENT 12 20 10 22 21 24 18 26
ROOT
ATOM      1  O   UNL     1      37.761  26.755 -18.059  1.00  0.00    -0.290 OA
ATOM      2  C   UNL     1      37.456  27.723 -17.354  1.00  0.00     0.189 A 
ATOM      3  C   UNL     1      36.409  28.776 -17.711  1.00  0.00    -0.014 A 
ATOM      4  O   UNL     1      35.848  28.619 -18.839  1.00  0.00    -0.867 OA
ATOM      5  C   UNL     1      36.235  29.738 -16.761  1.00  0.00     0.130 A 
ATOM      6  O   UNL     1      36.913  29.834 -15.557  1.00  0.00    -0.456 OA
ATOM      7  C   UNL     1      37.855  28.903 -15.242  1.00  0.00     0.146 A 
ATOM      8  C   UNL     1      38.507  29.058 -14.014  1.00  0.00     0.094 A 
ATOM      9  C   UNL     1      39.480  28.137 -13.634  1.00  0.00     0.123 A 
ATOM     10  C   UNL     1      39.808  27.070 -14.459  1.00  0.00     0.093 A 
ATOM     11  C   UNL     1      39.151  26.926 -15.680  1.00  0.00     0.134 A 
ATOM     12  C   UNL     1      38.169  27.846 -16.076  1.00  0.00     0.106 A 
ENDROOT
BRANCH   5  13
ATOM     13  C   UNL     1      35.255  30.857 -16.905  1.00  0.00     0.021 A 
ATOM     14  C   UNL     1      33.939  30.711 -16.420  1.00  0.00     0.016 A 
ATOM     15  C   UNL     1      35.593  32.048 -17.566  1.00  0.00     0.062 A 
ATOM     16  C   UNL     1      32.990  31.727 -16.580  1.00  0.00     0.051 A 
ATOM     17  C   UNL     1      34.652  33.062 -17.706  1.00  0.00     0.158 A 
ATOM     18  C   UNL     1      33.358  32.897 -17.224  1.00  0.00     0.157 A 
BRANCH  17  19
ATOM     19  O   UNL     1      34.972  34.251 -18.307  1.00  0.00    -0.504 OA
ATOM     20  H   UNL     1      34.708  34.153 -19.241  1.00  0.00     0.293 HD
ENDBRANCH  17  19
BRANCH  18  21
ATOM     21  O   UNL     1      32.444  33.900 -17.379  1.00  0.00    -0.504 OA
ATOM     22  H   UNL     1      31.642  33.542 -16.947  1.00  0.00     0.293 HD
ENDBRANCH  18  21
ENDBRANCH   5  13
BRANCH  11  23
ATOM     23  O   UNL     1      39.516  25.853 -16.454  1.00  0.00    -0.507 OA
ATOM     24  H   UNL     1      40.505  25.863 -16.487  1.00  0.00     0.293 HD
ENDBRANCH  11  23
BRANCH   9  25
ATOM     25  O   UNL     1      40.136  28.255 -12.443  1.00  0.00    -0.508 OA
ATOM     26  H   UNL     1      41.062  27.994 -12.579  1.00  0.00     0.293 HD
ENDBRANCH   9  25
TORSDOF 5
ENDMDL
MODEL 9
REMARK VINA RESULT:    -8.298      1.433      3.333
REMARK INTER + INTRA:          -9.628
REMARK INTER:                  -9.678
REMARK INTRA:                   0.050
REMARK UNBOUND:                 0.126
REMARK SMILES O=c1c([O-])c(-c2ccc(O)c(O)c2)oc2cc(O)cc(O)c12
REMARK SMILES IDX 1 1 2 2 3 3 4 4 5 5 14 6 15 7 16 8 17 9 19 10 20 11 22 12
REMARK SMILES IDX 6 13 7 14 13 15 8 16 11 17 9 18 12 19 10 21 21 23 18 25
REMARK H PARENT 12 20 10 22 21 24 18 26
ROOT
ATOM      1  O   UNL     1      38.789  28.965 -12.872  1.00  0.00    -0.290 OA
ATOM      2  C   UNL     1      38.247  28.881 -13.979  1.00  0.00     0.189 A 
ATOM      3  C   UNL     1      36.991  29.640 -14.404  1.00  0.00    -0.014 A 
ATOM      4  O   UNL     1      36.485  30.387 -13.512  1.00  0.00    -0.867 OA
ATOM      5  C   UNL     1      36.595  29.396 -15.686  1.00  0.00     0.130 A 
ATOM      6  O   UNL     1      37.211  28.543 -16.587  1.00  0.00    -0.456 OA
ATOM      7  C   UNL     1      38.324  27.856 -16.206  1.00  0.00     0.146 A 
ATOM      8  C   UNL     1      38.896  27.009 -17.160  1.00  0.00     0.094 A 
ATOM      9  C   UNL     1      40.037  26.279 -16.832  1.00  0.00     0.123 A 
ATOM     10  C   UNL     1      40.610  26.387 -15.572  1.00  0.00     0.093 A 
ATOM     11  C   UNL     1      40.031  27.235 -14.631  1.00  0.00     0.134 A 
ATOM     12  C   UNL     1      38.881  27.976 -14.947  1.00  0.00     0.106 A 
ENDROOT
BRANCH   5  13
ATOM     13  C   UNL     1      35.398  30.042 -16.304  1.00  0.00     0.021 A 
ATOM     14  C   UNL     1      35.322  30.197 -17.704  1.00  0.00     0.016 A 
ATOM     15  C   UNL     1      34.353  30.554 -15.520  1.00  0.00     0.062 A 
ATOM     16  C   UNL     1      34.232  30.835 -18.305  1.00  0.00     0.051 A 
ATOM     17  C   UNL     1      33.263  31.170 -16.123  1.00  0.00     0.158 A 
ATOM     18  C   UNL     1      33.209  31.318 -17.505  1.00  0.00     0.157 A 
BRANCH  17  19
ATOM     19  O   UNL     1      32.210  31.638 -15.382  1.00  0.00    -0.504 OA
ATOM     20  H   UNL     1      31.407  31.382 -15.874  1.00  0.00     0.293 HD
ENDBRANCH  17  19
BRANCH  18  21
ATOM     21  O   UNL     1      32.135  31.935 -18.080  1.00  0.00    -0.504 OA
ATOM     22  H   UNL     1      31.492  32.000 -17.345  1.00  0.00     0.293 HD
ENDBRANCH  18  21
ENDBRANCH   5  13
BRANCH  11  23
ATOM     23  O   UNL     1      40.640  27.302 -13.403  1.00  0.00    -0.507 OA
ATOM     24  H   UNL     1      40.995  26.395 -13.224  1.00  0.00     0.293 HD
ENDBRANCH  11  23
BRANCH   9  25
ATOM     25  O   UNL     1      40.624  25.443 -17.736  1.00  0.00    -0.508 OA
ATOM     26  H   UNL     1      40.016  25.330 -18.486  1.00  0.00     0.293 HD
ENDBRANCH   9  25
TORSDOF 5
ENDMDL
