MODEL 1
REMARK VINA RESULT:    -5.654      0.000      0.000
REMARK INTER + INTRA:          -7.329
REMARK INTER:                  -8.133
REMARK INTRA:                   0.805
REMARK UNBOUND:                 0.805
REMARK SMILES O=c1c(O[C@@H]2O[C@H](CO)[C@@H](O)[C@H](O)[C@H]2O)c(-c2ccc(O)cc2)oc2cc(O)cc(O)c12
REMARK SMILES IDX 4 1 3 2 1 3 2 4 32 5 16 6 30 7 25 8 24 9 29 10 26 11 27 12
REMARK SMILES IDX 17 13 18 14 23 15 19 16 22 17 20 18 21 19 31 21 28 23 5 25
REMARK SMILES IDX 6 26 14 27 7 28 12 29 10 30 15 31 8 33 9 34 13 36 11 38
REMARK H PARENT 21 20 31 22 28 24 15 32 9 35 13 37 11 39
ROOT
ATOM      1  O   UNL     1      31.397  32.716 -16.135  1.00  0.00    -0.454 OA
ENDROOT
BRANCH   1   2
ATOM      2  C   UNL     1      32.762  32.501 -16.114  1.00  0.00     0.214 A 
ATOM      3  O   UNL     1      33.027  33.955 -17.931  1.00  0.00    -0.285 OA
ATOM      4  C   UNL     1      33.580  33.189 -17.148  1.00  0.00     0.239 A 
ATOM      5  C   UNL     1      35.033  32.906 -17.143  1.00  0.00     0.111 A 
ATOM      6  C   UNL     1      33.370  31.675 -15.243  1.00  0.00     0.180 A 
ATOM      7  C   UNL     1      35.926  33.465 -18.068  1.00  0.00     0.134 A 
ATOM      8  C   UNL     1      35.525  32.042 -16.162  1.00  0.00     0.146 A 
ATOM      9  O   UNL     1      34.734  31.446 -15.213  1.00  0.00    -0.452 OA
ATOM     10  C   UNL     1      37.289  33.161 -18.005  1.00  0.00     0.093 A 
ATOM     11  C   UNL     1      36.887  31.735 -16.095  1.00  0.00     0.094 A 
ATOM     12  C   UNL     1      37.756  32.299 -17.020  1.00  0.00     0.123 A 
BRANCH   6  13
ATOM     13  C   UNL     1      32.638  30.962 -14.177  1.00  0.00     0.021 A 
ATOM     14  C   UNL     1      31.252  30.751 -14.249  1.00  0.00     0.016 A 
ATOM     15  C   UNL     1      33.336  30.469 -13.063  1.00  0.00     0.016 A 
ATOM     16  C   UNL     1      30.575  30.081 -13.226  1.00  0.00     0.047 A 
ATOM     17  C   UNL     1      32.662  29.797 -12.042  1.00  0.00     0.047 A 
ATOM     18  C   UNL     1      31.288  29.612 -12.130  1.00  0.00     0.115 A 
BRANCH  18  19
ATOM     19  O   UNL     1      30.670  28.954 -11.108  1.00  0.00    -0.508 OA
ATOM     20  H   UNL     1      30.811  29.453 -10.287  1.00  0.00     0.293 HD
ENDBRANCH  18  19
ENDBRANCH   6  13
BRANCH   7  21
ATOM     21  O   UNL     1      35.486  34.312 -19.043  1.00  0.00    -0.507 OA
ATOM     22  H   UNL     1      35.847  35.203 -18.902  1.00  0.00     0.293 HD
ENDBRANCH   7  21
BRANCH  12  23
ATOM     23  O   UNL     1      39.092  32.031 -16.997  1.00  0.00    -0.508 OA
ATOM     24  H   UNL     1      39.297  31.486 -16.219  1.00  0.00     0.293 HD
ENDBRANCH  12  23
ENDBRANCH   1   2
BRANCH   1  25
ATOM     25  C   UNL     1      30.983  33.383 -17.341  1.00  0.00     0.339 C 
ATOM     26  O   UNL     1      30.271  34.557 -16.960  1.00  0.00    -0.332 OA
ATOM     27  C   UNL     1      30.041  32.419 -18.102  1.00  0.00     0.214 C 
ATOM     28  C   UNL     1      29.896  35.383 -18.082  1.00  0.00     0.179 C 
ATOM     29  C   UNL     1      29.114  33.171 -19.080  1.00  0.00     0.180 C 
ATOM     30  C   UNL     1      29.624  34.588 -19.376  1.00  0.00     0.177 C 
BRANCH  27  31
ATOM     31  O   UNL     1      30.775  31.433 -18.848  1.00  0.00    -0.384 OA
ATOM     32  H   UNL     1      30.891  30.637 -18.277  1.00  0.00     0.211 HD
ENDBRANCH  27  31
BRANCH  28  33
ATOM     33  C   UNL     1      28.670  36.180 -17.622  1.00  0.00     0.191 C 
BRANCH  33  34
ATOM     34  O   UNL     1      27.743  36.301 -18.706  1.00  0.00    -0.394 OA
ATOM     35  H   UNL     1      26.878  36.495 -18.292  1.00  0.00     0.210 HD
ENDBRANCH  33  34
ENDBRANCH  28  33
BRANCH  29  36
ATOM     36  O   UNL     1      27.777  33.243 -18.575  1.00  0.00    -0.387 OA
ATOM     37  H   UNL     1      27.387  34.067 -18.918  1.00  0.00     0.211 HD
ENDBRANCH  29  36
BRANCH  30  38
ATOM     38  O   UNL     1      30.857  34.506 -20.112  1.00  0.00    -0.387 OA
ATOM     39  H   UNL     1      30.654  34.163 -21.002  1.00  0.00     0.211 HD
ENDBRANCH  30  38
ENDBRANCH   1  25
TORSDOF 11
ENDMDL
MODEL 2
REMARK VINA RESULT:    -5.465     21.294     23.933
REMARK INTER + INTRA:          -7.056
REMARK INTER:                  -8.799
REMARK INTRA:                   1.743
REMARK UNBOUND:                 0.805
REMARK SMILES O=c1c(O[C@@H]2O[C@H](CO)[C@@H](O)[C@H](O)[C@H]2O)c(-c2ccc(O)cc2)oc2cc(O)cc(O)c12
REMARK SMILES IDX 4 1 3 2 1 3 2 4 32 5 16 6 30 7 25 8 24 9 29 10 26 11 27 12
REMARK SMILES IDX 17 13 18 14 23 15 19 16 22 17 20 18 21 19 31 21 28 23 5 25
REMARK SMILES IDX 6 26 14 27 7 28 12 29 10 30 15 31 8 33 9 34 13 36 11 38
REMARK H PARENT 21 20 31 22 28 24 15 32 9 35 13 37 11 39
ROOT
ATOM      1  O   UNL     1      54.393  22.712 -22.191  1.00  0.00    -0.454 OA
ENDROOT
BRANCH   1   2
ATOM      2  C   UNL     1      54.051  23.830 -21.453  1.00  0.00     0.214 A 
ATOM      3  O   UNL     1      53.920  25.096 -23.420  1.00  0.00    -0.285 OA
ATOM      4  C   UNL     1      53.840  25.102 -22.195  1.00  0.00     0.239 A 
ATOM      5  C   UNL     1      53.527  26.300 -21.385  1.00  0.00     0.111 A 
ATOM      6  C   UNL     1      53.947  23.831 -20.113  1.00  0.00     0.180 A 
ATOM      7  C   UNL     1      53.321  27.570 -21.941  1.00  0.00     0.134 A 
ATOM      8  C   UNL     1      53.429  26.142 -20.000  1.00  0.00     0.146 A 
ATOM      9  O   UNL     1      53.611  24.942 -19.361  1.00  0.00    -0.452 OA
ATOM     10  C   UNL     1      53.023  28.660 -21.120  1.00  0.00     0.093 A 
ATOM     11  C   UNL     1      53.129  27.230 -19.175  1.00  0.00     0.094 A 
ATOM     12  C   UNL     1      52.930  28.480 -19.745  1.00  0.00     0.123 A 
BRANCH   6  13
ATOM     13  C   UNL     1      54.127  22.612 -19.298  1.00  0.00     0.021 A 
ATOM     14  C   UNL     1      53.972  21.329 -19.848  1.00  0.00     0.016 A 
ATOM     15  C   UNL     1      54.472  22.725 -17.942  1.00  0.00     0.016 A 
ATOM     16  C   UNL     1      54.139  20.187 -19.059  1.00  0.00     0.047 A 
ATOM     17  C   UNL     1      54.642  21.586 -17.155  1.00  0.00     0.047 A 
ATOM     18  C   UNL     1      54.471  20.327 -17.717  1.00  0.00     0.115 A 
BRANCH  18  19
ATOM     19  O   UNL     1      54.642  19.242 -16.910  1.00  0.00    -0.508 OA
ATOM     20  H   UNL     1      54.727  19.547 -15.992  1.00  0.00     0.293 HD
ENDBRANCH  18  19
ENDBRANCH   6  13
BRANCH   7  21
ATOM     21  O   UNL     1      53.410  27.767 -23.289  1.00  0.00    -0.507 OA
ATOM     22  H   UNL     1      54.288  28.113 -23.521  1.00  0.00     0.293 HD
ENDBRANCH   7  21
BRANCH  12  23
ATOM     23  O   UNL     1      52.636  29.571 -18.983  1.00  0.00    -0.508 OA
ATOM     24  H   UNL     1      52.127  29.292 -18.204  1.00  0.00     0.293 HD
ENDBRANCH  12  23
ENDBRANCH   1   2
BRANCH   1  25
ATOM     25  C   UNL     1      53.252  21.871 -22.441  1.00  0.00     0.339 C 
ATOM     26  O   UNL     1      53.658  20.522 -22.233  1.00  0.00    -0.332 OA
ATOM     27  C   UNL     1      52.843  22.077 -23.920  1.00  0.00     0.214 C 
ATOM     28  C   UNL     1      52.572  19.579 -22.341  1.00  0.00     0.179 C 
ATOM     29  C   UNL     1      52.033  20.882 -24.466  1.00  0.00     0.180 C 
ATOM     30  C   UNL     1      51.472  20.008 -23.336  1.00  0.00     0.177 C 
BRANCH  27  31
ATOM     31  O   UNL     1      52.059  23.269 -24.098  1.00  0.00    -0.384 OA
ATOM     32  H   UNL     1      51.873  23.651 -23.208  1.00  0.00     0.211 HD
ENDBRANCH  27  31
BRANCH  28  33
ATOM     33  C   UNL     1      53.216  18.243 -22.730  1.00  0.00     0.191 C 
BRANCH  33  34
ATOM     34  O   UNL     1      54.575  18.218 -22.283  1.00  0.00    -0.394 OA
ATOM     35  H   UNL     1      55.072  17.745 -22.980  1.00  0.00     0.210 HD
ENDBRANCH  33  34
ENDBRANCH  28  33
BRANCH  29  36
ATOM     36  O   UNL     1      52.827  20.076 -25.342  1.00  0.00    -0.387 OA
ATOM     37  H   UNL     1      52.311  19.952 -26.160  1.00  0.00     0.211 HD
ENDBRANCH  29  36
BRANCH  30  38
ATOM     38  O   UNL     1      50.481  20.752 -22.606  1.00  0.00    -0.387 OA
ATOM     39  H   UNL     1      49.684  20.196 -22.529  1.00  0.00     0.211 HD
ENDBRANCH  30  38
ENDBRANCH   1  25
TORSDOF 11
ENDMDL
MODEL 3
REMARK VINA RESULT:    -4.989      1.842      6.623
REMARK INTER + INTRA:          -6.372
REMARK INTER:                  -7.753
REMARK INTRA:                   1.380
REMARK UNBOUND:                 0.805
REMARK SMILES O=c1c(O[C@@H]2O[C@H](CO)[C@@H](O)[C@H](O)[C@H]2O)c(-c2ccc(O)cc2)oc2cc(O)cc(O)c12
REMARK SMILES IDX 4 1 3 2 1 3 2 4 32 5 16 6 30 7 25 8 24 9 29 10 26 11 27 12
REMARK SMILES IDX 17 13 18 14 23 15 19 16 22 17 20 18 21 19 31 21 28 23 5 25
REMARK SMILES IDX 6 26 14 27 7 28 12 29 10 30 15 31 8 33 9 34 13 36 11 38
REMARK H PARENT 21 20 31 22 28 24 15 32 9 35 13 37 11 39
ROOT
ATOM      1  O   UNL     1      34.222  30.506 -14.788  1.00  0.00    -0.454 OA
ENDROOT
BRANCH   1   2
ATOM      2  C   UNL     1      33.075  31.042 -15.343  1.00  0.00     0.214 A 
ATOM      3  O   UNL     1      34.305  31.764 -17.202  1.00  0.00    -0.285 OA
ATOM      4  C   UNL     1      33.209  31.741 -16.649  1.00  0.00     0.239 A 
ATOM      5  C   UNL     1      31.982  32.355 -17.204  1.00  0.00     0.111 A 
ATOM      6  C   UNL     1      31.871  31.000 -14.745  1.00  0.00     0.180 A 
ATOM      7  C   UNL     1      31.957  33.062 -18.414  1.00  0.00     0.134 A 
ATOM      8  C   UNL     1      30.797  32.210 -16.478  1.00  0.00     0.146 A 
ATOM      9  O   UNL     1      30.717  31.537 -15.287  1.00  0.00    -0.452 OA
ATOM     10  C   UNL     1      30.763  33.613 -18.885  1.00  0.00     0.093 A 
ATOM     11  C   UNL     1      29.599  32.759 -16.947  1.00  0.00     0.094 A 
ATOM     12  C   UNL     1      29.596  33.456 -18.147  1.00  0.00     0.123 A 
BRANCH   6  13
ATOM     13  C   UNL     1      31.645  30.316 -13.456  1.00  0.00     0.021 A 
ATOM     14  C   UNL     1      32.680  29.641 -12.789  1.00  0.00     0.016 A 
ATOM     15  C   UNL     1      30.370  30.344 -12.868  1.00  0.00     0.016 A 
ATOM     16  C   UNL     1      32.444  28.993 -11.572  1.00  0.00     0.047 A 
ATOM     17  C   UNL     1      30.135  29.700 -11.652  1.00  0.00     0.047 A 
ATOM     18  C   UNL     1      31.171  29.027 -11.017  1.00  0.00     0.115 A 
BRANCH  18  19
ATOM     19  O   UNL     1      30.895  28.408  -9.834  1.00  0.00    -0.508 OA
ATOM     20  H   UNL     1      30.852  29.080  -9.134  1.00  0.00     0.293 HD
ENDBRANCH  18  19
ENDBRANCH   6  13
BRANCH   7  21
ATOM     21  O   UNL     1      33.094  33.227 -19.152  1.00  0.00    -0.507 OA
ATOM     22  H   UNL     1      33.368  34.159 -19.141  1.00  0.00     0.293 HD
ENDBRANCH   7  21
BRANCH  12  23
ATOM     23  O   UNL     1      28.454  34.010 -18.646  1.00  0.00    -0.508 OA
ATOM     24  H   UNL     1      27.945  34.405 -17.918  1.00  0.00     0.293 HD
ENDBRANCH  12  23
ENDBRANCH   1   2
BRANCH   1  25
ATOM     25  C   UNL     1      35.368  30.708 -15.635  1.00  0.00     0.339 C 
ATOM     26  O   UNL     1      35.663  29.465 -16.263  1.00  0.00    -0.332 OA
ATOM     27  C   UNL     1      36.546  31.132 -14.724  1.00  0.00     0.214 C 
ATOM     28  C   UNL     1      36.728  29.556 -17.232  1.00  0.00     0.179 C 
ATOM     29  C   UNL     1      37.913  30.848 -15.381  1.00  0.00     0.180 C 
ATOM     30  C   UNL     1      37.786  30.628 -16.894  1.00  0.00     0.177 C 
BRANCH  27  31
ATOM     31  O   UNL     1      36.489  32.531 -14.393  1.00  0.00    -0.384 OA
ATOM     32  H   UNL     1      36.001  32.999 -15.111  1.00  0.00     0.211 HD
ENDBRANCH  27  31
BRANCH  28  33
ATOM     33  C   UNL     1      37.334  28.151 -17.321  1.00  0.00     0.191 C 
BRANCH  33  34
ATOM     34  O   UNL     1      38.530  28.194 -18.106  1.00  0.00    -0.394 OA
ATOM     35  H   UNL     1      38.466  27.438 -18.724  1.00  0.00     0.210 HD
ENDBRANCH  33  34
ENDBRANCH  28  33
BRANCH  29  36
ATOM     36  O   UNL     1      38.546  29.712 -14.786  1.00  0.00    -0.387 OA
ATOM     37  H   UNL     1      39.474  29.959 -14.618  1.00  0.00     0.211 HD
ENDBRANCH  29  36
BRANCH  30  38
ATOM     38  O   UNL     1      37.386  31.858 -17.522  1.00  0.00    -0.387 OA
ATOM     39  H   UNL     1      37.699  32.595 -16.967  1.00  0.00     0.211 HD
ENDBRANCH  30  38
ENDBRANCH   1  25
TORSDOF 11
ENDMDL
MODEL 4
REMARK VINA RESULT:    -4.978      3.719      7.479
REMARK INTER + INTRA:          -6.356
REMARK INTER:                  -7.786
REMARK INTRA:                   1.430
REMARK UNBOUND:                 0.805
REMARK SMILES O=c1c(O[C@@H]2O[C@H](CO)[C@@H](O)[C@H](O)[C@H]2O)c(-c2ccc(O)cc2)oc2cc(O)cc(O)c12
REMARK SMILES IDX 4 1 3 2 1 3 2 4 32 5 16 6 30 7 25 8 24 9 29 10 26 11 27 12
REMARK SMILES IDX 17 13 18 14 23 15 19 16 22 17 20 18 21 19 31 21 28 23 5 25
REMARK SMILES IDX 6 26 14 27 7 28 12 29 10 30 15 31 8 33 9 34 13 36 11 38
REMARK H PARENT 21 20 31 22 28 24 15 32 9 35 13 37 11 39
ROOT
ATOM      1  O   UNL     1      36.580  29.583 -14.510  1.00  0.00    -0.454 OA
ENDROOT
BRANCH   1   2
ATOM      2  C   UNL     1      36.307  30.641 -15.356  1.00  0.00     0.214 A 
ATOM      3  O   UNL     1      38.463  30.484 -16.260  1.00  0.00    -0.285 OA
ATOM      4  C   UNL     1      37.398  31.094 -16.260  1.00  0.00     0.239 A 
ATOM      5  C   UNL     1      37.105  32.262 -17.122  1.00  0.00     0.111 A 
ATOM      6  C   UNL     1      35.134  31.298 -15.368  1.00  0.00     0.180 A 
ATOM      7  C   UNL     1      38.039  32.813 -18.009  1.00  0.00     0.134 A 
ATOM      8  C   UNL     1      35.830  32.827 -17.040  1.00  0.00     0.146 A 
ATOM      9  O   UNL     1      34.848  32.361 -16.205  1.00  0.00    -0.452 OA
ATOM     10  C   UNL     1      37.698  33.913 -18.800  1.00  0.00     0.093 A 
ATOM     11  C   UNL     1      35.484  33.928 -17.830  1.00  0.00     0.094 A 
ATOM     12  C   UNL     1      36.423  34.460 -18.702  1.00  0.00     0.123 A 
BRANCH   6  13
ATOM     13  C   UNL     1      33.993  30.907 -14.514  1.00  0.00     0.021 A 
ATOM     14  C   UNL     1      34.172  30.528 -13.174  1.00  0.00     0.016 A 
ATOM     15  C   UNL     1      32.692  30.923 -15.042  1.00  0.00     0.016 A 
ATOM     16  C   UNL     1      33.080  30.154 -12.385  1.00  0.00     0.047 A 
ATOM     17  C   UNL     1      31.602  30.553 -14.253  1.00  0.00     0.047 A 
ATOM     18  C   UNL     1      31.804  30.169 -12.934  1.00  0.00     0.115 A 
BRANCH  18  19
ATOM     19  O   UNL     1      30.711  29.811 -12.202  1.00  0.00    -0.508 OA
ATOM     20  H   UNL     1      30.435  30.571 -11.664  1.00  0.00     0.293 HD
ENDBRANCH  18  19
ENDBRANCH   6  13
BRANCH   7  21
ATOM     21  O   UNL     1      39.296  32.291 -18.118  1.00  0.00    -0.507 OA
ATOM     22  H   UNL     1      39.465  32.010 -19.033  1.00  0.00     0.293 HD
ENDBRANCH   7  21
BRANCH  12  23
ATOM     23  O   UNL     1      36.134  35.533 -19.492  1.00  0.00    -0.508 OA
ATOM     24  H   UNL     1      35.497  35.265 -20.176  1.00  0.00     0.293 HD
ENDBRANCH  12  23
ENDBRANCH   1   2
BRANCH   1  25
ATOM     25  C   UNL     1      37.697  28.804 -14.976  1.00  0.00     0.339 C 
ATOM     26  O   UNL     1      37.259  28.060 -16.110  1.00  0.00    -0.332 OA
ATOM     27  C   UNL     1      38.095  27.837 -13.834  1.00  0.00     0.214 C 
ATOM     28  C   UNL     1      38.320  27.319 -16.747  1.00  0.00     0.179 C 
ATOM     29  C   UNL     1      38.869  26.611 -14.360  1.00  0.00     0.180 C 
ATOM     30  C   UNL     1      39.419  26.844 -15.774  1.00  0.00     0.177 C 
BRANCH  27  31
ATOM     31  O   UNL     1      38.908  28.488 -12.842  1.00  0.00    -0.384 OA
ATOM     32  H   UNL     1      38.544  28.267 -11.952  1.00  0.00     0.211 HD
ENDBRANCH  27  31
BRANCH  28  33
ATOM     33  C   UNL     1      37.638  26.149 -17.467  1.00  0.00     0.191 C 
BRANCH  33  34
ATOM     34  O   UNL     1      37.339  26.525 -18.815  1.00  0.00    -0.394 OA
ATOM     35  H   UNL     1      36.423  26.220 -18.975  1.00  0.00     0.210 HD
ENDBRANCH  33  34
ENDBRANCH  28  33
BRANCH  29  36
ATOM     36  O   UNL     1      38.045  25.440 -14.358  1.00  0.00    -0.387 OA
ATOM     37  H   UNL     1      37.212  25.677 -14.804  1.00  0.00     0.211 HD
ENDBRANCH  29  36
BRANCH  30  38
ATOM     38  O   UNL     1      40.437  27.860 -15.726  1.00  0.00    -0.387 OA
ATOM     39  H   UNL     1      41.070  27.618 -15.026  1.00  0.00     0.211 HD
ENDBRANCH  30  38
ENDBRANCH   1  25
TORSDOF 11
ENDMDL
MODEL 5
REMARK VINA RESULT:    -4.901      1.549      7.085
REMARK INTER + INTRA:          -6.245
REMARK INTER:                  -9.670
REMARK INTRA:                   3.424
REMARK UNBOUND:                 0.805
REMARK SMILES O=c1c(O[C@@H]2O[C@H](CO)[C@@H](O)[C@H](O)[C@H]2O)c(-c2ccc(O)cc2)oc2cc(O)cc(O)c12
REMARK SMILES IDX 4 1 3 2 1 3 2 4 32 5 16 6 30 7 25 8 24 9 29 10 26 11 27 12
REMARK SMILES IDX 17 13 18 14 23 15 19 16 22 17 20 18 21 19 31 21 28 23 5 25
REMARK SMILES IDX 6 26 14 27 7 28 12 29 10 30 15 31 8 33 9 34 13 36 11 38
REMARK H PARENT 21 20 31 22 28 24 15 32 9 35 13 37 11 39
ROOT
ATOM      1  O   UNL     1      33.456  31.535 -17.944  1.00  0.00    -0.454 OA
ENDROOT
BRANCH   1   2
ATOM      2  C   UNL     1      32.797  31.419 -16.735  1.00  0.00     0.214 A 
ATOM      3  O   UNL     1      34.629  30.266 -15.839  1.00  0.00    -0.285 OA
ATOM      4  C   UNL     1      33.492  30.684 -15.644  1.00  0.00     0.239 A 
ATOM      5  C   UNL     1      32.749  30.524 -14.373  1.00  0.00     0.111 A 
ATOM      6  C   UNL     1      31.558  31.894 -16.517  1.00  0.00     0.180 A 
ATOM      7  C   UNL     1      33.266  29.840 -13.264  1.00  0.00     0.134 A 
ATOM      8  C   UNL     1      31.476  31.093 -14.287  1.00  0.00     0.146 A 
ATOM      9  O   UNL     1      30.884  31.782 -15.314  1.00  0.00    -0.452 OA
ATOM     10  C   UNL     1      32.516  29.730 -12.091  1.00  0.00     0.093 A 
ATOM     11  C   UNL     1      30.722  30.985 -13.115  1.00  0.00     0.094 A 
ATOM     12  C   UNL     1      31.251  30.303 -12.027  1.00  0.00     0.123 A 
BRANCH   6  13
ATOM     13  C   UNL     1      30.802  32.647 -17.539  1.00  0.00     0.021 A 
ATOM     14  C   UNL     1      30.221  32.007 -18.645  1.00  0.00     0.016 A 
ATOM     15  C   UNL     1      30.645  34.035 -17.405  1.00  0.00     0.016 A 
ATOM     16  C   UNL     1      29.515  32.738 -19.605  1.00  0.00     0.047 A 
ATOM     17  C   UNL     1      29.938  34.766 -18.362  1.00  0.00     0.047 A 
ATOM     18  C   UNL     1      29.382  34.112 -19.455  1.00  0.00     0.115 A 
BRANCH  18  19
ATOM     19  O   UNL     1      28.704  34.865 -20.367  1.00  0.00    -0.508 OA
ATOM     20  H   UNL     1      28.293  35.615 -19.907  1.00  0.00     0.293 HD
ENDBRANCH  18  19
ENDBRANCH   6  13
BRANCH   7  21
ATOM     21  O   UNL     1      34.505  29.269 -13.308  1.00  0.00    -0.507 OA
ATOM     22  H   UNL     1      35.178  29.905 -13.012  1.00  0.00     0.293 HD
ENDBRANCH   7  21
BRANCH  12  23
ATOM     23  O   UNL     1      30.555  30.171 -10.863  1.00  0.00    -0.508 OA
ATOM     24  H   UNL     1      29.676  30.571 -10.967  1.00  0.00     0.293 HD
ENDBRANCH  12  23
ENDBRANCH   1   2
BRANCH   1  25
ATOM     25  C   UNL     1      34.805  32.007 -17.772  1.00  0.00     0.339 C 
ATOM     26  O   UNL     1      35.595  30.904 -17.338  1.00  0.00    -0.332 OA
ATOM     27  C   UNL     1      34.775  33.098 -16.673  1.00  0.00     0.214 C 
ATOM     28  C   UNL     1      37.000  31.216 -17.237  1.00  0.00     0.179 C 
ATOM     29  C   UNL     1      36.156  33.286 -16.011  1.00  0.00     0.180 C 
ATOM     30  C   UNL     1      37.285  32.686 -16.859  1.00  0.00     0.177 C 
BRANCH  27  31
ATOM     31  O   UNL     1      34.350  34.369 -17.193  1.00  0.00    -0.384 OA
ATOM     32  H   UNL     1      34.620  34.421 -18.141  1.00  0.00     0.211 HD
ENDBRANCH  27  31
BRANCH  28  33
ATOM     33  C   UNL     1      37.573  30.232 -16.210  1.00  0.00     0.191 C 
BRANCH  33  34
ATOM     34  O   UNL     1      37.088  28.915 -16.487  1.00  0.00    -0.394 OA
ATOM     35  H   UNL     1      37.585  28.321 -15.889  1.00  0.00     0.210 HD
ENDBRANCH  33  34
ENDBRANCH  28  33
BRANCH  29  36
ATOM     36  O   UNL     1      36.185  32.708 -14.702  1.00  0.00    -0.387 OA
ATOM     37  H   UNL     1      36.281  33.443 -14.068  1.00  0.00     0.211 HD
ENDBRANCH  29  36
BRANCH  30  38
ATOM     38  O   UNL     1      37.416  33.438 -18.078  1.00  0.00    -0.387 OA
ATOM     39  H   UNL     1      38.298  33.852 -18.082  1.00  0.00     0.211 HD
ENDBRANCH  30  38
ENDBRANCH   1  25
TORSDOF 11
ENDMDL
MODEL 6
REMARK VINA RESULT:    -4.817      3.933      6.494
REMARK INTER + INTRA:          -6.125
REMARK INTER:                  -7.603
REMARK INTRA:                   1.478
REMARK UNBOUND:                 0.805
REMARK SMILES O=c1c(O[C@@H]2O[C@H](CO)[C@@H](O)[C@H](O)[C@H]2O)c(-c2ccc(O)cc2)oc2cc(O)cc(O)c12
REMARK SMILES IDX 4 1 3 2 1 3 2 4 32 5 16 6 30 7 25 8 24 9 29 10 26 11 27 12
REMARK SMILES IDX 17 13 18 14 23 15 19 16 22 17 20 18 21 19 31 21 28 23 5 25
REMARK SMILES IDX 6 26 14 27 7 28 12 29 10 30 15 31 8 33 9 34 13 36 11 38
REMARK H PARENT 21 20 31 22 28 24 15 32 9 35 13 37 11 39
ROOT
ATOM      1  O   UNL     1      36.438  29.402 -17.318  1.00  0.00    -0.454 OA
ENDROOT
BRANCH   1   2
ATOM      2  C   UNL     1      37.360  28.773 -16.503  1.00  0.00     0.214 A 
ATOM      3  O   UNL     1      38.454  27.918 -18.390  1.00  0.00    -0.285 OA
ATOM      4  C   UNL     1      38.412  27.955 -17.164  1.00  0.00     0.239 A 
ATOM      5  C   UNL     1      39.360  27.246 -16.274  1.00  0.00     0.111 A 
ATOM      6  C   UNL     1      37.324  28.829 -15.160  1.00  0.00     0.180 A 
ATOM      7  C   UNL     1      40.390  26.424 -16.751  1.00  0.00     0.134 A 
ATOM      8  C   UNL     1      39.211  27.418 -14.896  1.00  0.00     0.146 A 
ATOM      9  O   UNL     1      38.237  28.201 -14.332  1.00  0.00    -0.452 OA
ATOM     10  C   UNL     1      41.255  25.787 -15.857  1.00  0.00     0.093 A 
ATOM     11  C   UNL     1      40.074  26.783 -13.998  1.00  0.00     0.094 A 
ATOM     12  C   UNL     1      41.089  25.972 -14.490  1.00  0.00     0.123 A 
BRANCH   6  13
ATOM     13  C   UNL     1      36.324  29.628 -14.422  1.00  0.00     0.021 A 
ATOM     14  C   UNL     1      34.951  29.528 -14.701  1.00  0.00     0.016 A 
ATOM     15  C   UNL     1      36.743  30.503 -13.408  1.00  0.00     0.016 A 
ATOM     16  C   UNL     1      34.020  30.298 -13.997  1.00  0.00     0.047 A 
ATOM     17  C   UNL     1      35.814  31.269 -12.702  1.00  0.00     0.047 A 
ATOM     18  C   UNL     1      34.462  31.163 -13.004  1.00  0.00     0.115 A 
BRANCH  18  19
ATOM     19  O   UNL     1      33.591  31.934 -12.293  1.00  0.00    -0.508 OA
ATOM     20  H   UNL     1      33.343  31.458 -11.484  1.00  0.00     0.293 HD
ENDBRANCH  18  19
ENDBRANCH   6  13
BRANCH   7  21
ATOM     21  O   UNL     1      40.568  26.228 -18.090  1.00  0.00    -0.507 OA
ATOM     22  H   UNL     1      41.271  26.810 -18.424  1.00  0.00     0.293 HD
ENDBRANCH   7  21
BRANCH  12  23
ATOM     23  O   UNL     1      41.955  25.331 -13.655  1.00  0.00    -0.508 OA
ATOM     24  H   UNL     1      42.468  25.990 -13.157  1.00  0.00     0.293 HD
ENDBRANCH  12  23
ENDBRANCH   1   2
BRANCH   1  25
ATOM     25  C   UNL     1      36.151  30.738 -16.864  1.00  0.00     0.339 C 
ATOM     26  O   UNL     1      34.920  31.139 -17.457  1.00  0.00    -0.332 OA
ATOM     27  C   UNL     1      37.298  31.651 -17.361  1.00  0.00     0.214 C 
ATOM     28  C   UNL     1      34.457  32.424 -16.992  1.00  0.00     0.179 C 
ATOM     29  C   UNL     1      36.867  33.130 -17.436  1.00  0.00     0.180 C 
ATOM     30  C   UNL     1      35.595  33.397 -16.619  1.00  0.00     0.177 C 
BRANCH  27  31
ATOM     31  O   UNL     1      38.457  31.564 -16.512  1.00  0.00    -0.384 OA
ATOM     32  H   UNL     1      38.369  32.240 -15.800  1.00  0.00     0.211 HD
ENDBRANCH  27  31
BRANCH  28  33
ATOM     33  C   UNL     1      33.566  32.976 -18.111  1.00  0.00     0.191 C 
BRANCH  33  34
ATOM     34  O   UNL     1      32.318  32.275 -18.119  1.00  0.00    -0.394 OA
ATOM     35  H   UNL     1      32.389  31.623 -18.845  1.00  0.00     0.210 HD
ENDBRANCH  33  34
ENDBRANCH  28  33
BRANCH  29  36
ATOM     36  O   UNL     1      36.657  33.539 -18.791  1.00  0.00    -0.387 OA
ATOM     37  H   UNL     1      36.646  34.514 -18.795  1.00  0.00     0.211 HD
ENDBRANCH  29  36
BRANCH  30  38
ATOM     38  O   UNL     1      35.883  33.225 -15.220  1.00  0.00    -0.387 OA
ATOM     39  H   UNL     1      36.403  32.407 -15.119  1.00  0.00     0.211 HD
ENDBRANCH  30  38
ENDBRANCH   1  25
TORSDOF 11
ENDMDL
MODEL 7
REMARK VINA RESULT:    -3.378      2.684      6.102
REMARK INTER + INTRA:          -4.054
REMARK INTER:                  -2.875
REMARK INTRA:                  -1.179
REMARK UNBOUND:                 0.805
REMARK SMILES O=c1c(O[C@@H]2O[C@H](CO)[C@@H](O)[C@H](O)[C@H]2O)c(-c2ccc(O)cc2)oc2cc(O)cc(O)c12
REMARK SMILES IDX 4 1 3 2 1 3 2 4 32 5 16 6 30 7 25 8 24 9 29 10 26 11 27 12
REMARK SMILES IDX 17 13 18 14 23 15 19 16 22 17 20 18 21 19 31 21 28 23 5 25
REMARK SMILES IDX 6 26 14 27 7 28 12 29 10 30 15 31 8 33 9 34 13 36 11 38
REMARK H PARENT 21 20 31 22 28 24 15 32 9 35 13 37 11 39
ROOT
ATOM      1  O   UNL     1      34.568  31.202 -14.202  1.00  0.00    -0.454 OA
ENDROOT
BRANCH   1   2
ATOM      2  C   UNL     1      35.326  30.525 -15.138  1.00  0.00     0.214 A 
ATOM      3  O   UNL     1      36.502  29.451 -13.420  1.00  0.00    -0.285 OA
ATOM      4  C   UNL     1      36.384  29.610 -14.631  1.00  0.00     0.239 A 
ATOM      5  C   UNL     1      37.222  28.935 -15.647  1.00  0.00     0.111 A 
ATOM      6  C   UNL     1      35.185  30.688 -16.466  1.00  0.00     0.180 A 
ATOM      7  C   UNL     1      38.268  28.061 -15.321  1.00  0.00     0.134 A 
ATOM      8  C   UNL     1      36.941  29.185 -16.993  1.00  0.00     0.146 A 
ATOM      9  O   UNL     1      35.940  30.021 -17.414  1.00  0.00    -0.452 OA
ATOM     10  C   UNL     1      39.018  27.450 -16.329  1.00  0.00     0.093 A 
ATOM     11  C   UNL     1      37.689  28.575 -18.005  1.00  0.00     0.094 A 
ATOM     12  C   UNL     1      38.721  27.714 -17.661  1.00  0.00     0.123 A 
BRANCH   6  13
ATOM     13  C   UNL     1      34.153  31.564 -17.056  1.00  0.00     0.021 A 
ATOM     14  C   UNL     1      34.336  32.952 -17.159  1.00  0.00     0.016 A 
ATOM     15  C   UNL     1      32.959  31.005 -17.539  1.00  0.00     0.016 A 
ATOM     16  C   UNL     1      33.344  33.766 -17.714  1.00  0.00     0.047 A 
ATOM     17  C   UNL     1      31.969  31.817 -18.096  1.00  0.00     0.047 A 
ATOM     18  C   UNL     1      32.168  33.189 -18.175  1.00  0.00     0.115 A 
BRANCH  18  19
ATOM     19  O   UNL     1      31.173  33.944 -18.722  1.00  0.00    -0.508 OA
ATOM     20  H   UNL     1      30.483  33.351 -19.061  1.00  0.00     0.293 HD
ENDBRANCH  18  19
ENDBRANCH   6  13
BRANCH   7  21
ATOM     21  O   UNL     1      38.575  27.791 -14.018  1.00  0.00    -0.507 OA
ATOM     22  H   UNL     1      39.507  27.524 -13.941  1.00  0.00     0.293 HD
ENDBRANCH   7  21
BRANCH  12  23
ATOM     23  O   UNL     1      39.479  27.096 -18.611  1.00  0.00    -0.508 OA
ATOM     24  H   UNL     1      38.923  26.889 -19.381  1.00  0.00     0.293 HD
ENDBRANCH  12  23
ENDBRANCH   1   2
BRANCH   1  25
ATOM     25  C   UNL     1      33.357  30.491 -13.885  1.00  0.00     0.339 C 
ATOM     26  O   UNL     1      32.272  31.209 -14.465  1.00  0.00    -0.332 OA
ATOM     27  C   UNL     1      33.218  30.480 -12.343  1.00  0.00     0.214 C 
ATOM     28  C   UNL     1      31.003  30.538 -14.317  1.00  0.00     0.179 C 
ATOM     29  C   UNL     1      31.757  30.261 -11.898  1.00  0.00     0.180 C 
ATOM     30  C   UNL     1      30.892  29.693 -13.031  1.00  0.00     0.177 C 
BRANCH  27  31
ATOM     31  O   UNL     1      34.029  29.456 -11.740  1.00  0.00    -0.384 OA
ATOM     32  H   UNL     1      34.141  28.726 -12.394  1.00  0.00     0.211 HD
ENDBRANCH  27  31
BRANCH  28  33
ATOM     33  C   UNL     1      29.939  31.640 -14.381  1.00  0.00     0.191 C 
BRANCH  33  34
ATOM     34  O   UNL     1      30.247  32.543 -15.448  1.00  0.00    -0.394 OA
ATOM     35  H   UNL     1      30.585  33.353 -15.016  1.00  0.00     0.210 HD
ENDBRANCH  33  34
ENDBRANCH  28  33
BRANCH  29  36
ATOM     36  O   UNL     1      31.175  31.478 -11.418  1.00  0.00    -0.387 OA
ATOM     37  H   UNL     1      30.294  31.252 -11.067  1.00  0.00     0.211 HD
ENDBRANCH  29  36
BRANCH  30  38
ATOM     38  O   UNL     1      31.329  28.358 -13.339  1.00  0.00    -0.387 OA
ATOM     39  H   UNL     1      31.241  28.228 -14.301  1.00  0.00     0.211 HD
ENDBRANCH  30  38
ENDBRANCH   1  25
TORSDOF 11
ENDMDL
MODEL 8
REMARK VINA RESULT:    -3.319      3.661      7.203
REMARK INTER + INTRA:          -3.969
REMARK INTER:                  -7.052
REMARK INTRA:                   3.083
REMARK UNBOUND:                 0.805
REMARK SMILES O=c1c(O[C@@H]2O[C@H](CO)[C@@H](O)[C@H](O)[C@H]2O)c(-c2ccc(O)cc2)oc2cc(O)cc(O)c12
REMARK SMILES IDX 4 1 3 2 1 3 2 4 32 5 16 6 30 7 25 8 24 9 29 10 26 11 27 12
REMARK SMILES IDX 17 13 18 14 23 15 19 16 22 17 20 18 21 19 31 21 28 23 5 25
REMARK SMILES IDX 6 26 14 27 7 28 12 29 10 30 15 31 8 33 9 34 13 36 11 38
REMARK H PARENT 21 20 31 22 28 24 15 32 9 35 13 37 11 39
ROOT
ATOM      1  O   UNL     1      36.641  29.830 -14.730  1.00  0.00    -0.454 OA
ENDROOT
BRANCH   1   2
ATOM      2  C   UNL     1      36.344  30.885 -15.572  1.00  0.00     0.214 A 
ATOM      3  O   UNL     1      38.515  30.805 -16.449  1.00  0.00    -0.285 OA
ATOM      4  C   UNL     1      37.431  31.380 -16.458  1.00  0.00     0.239 A 
ATOM      5  C   UNL     1      37.112  32.544 -17.315  1.00  0.00     0.111 A 
ATOM      6  C   UNL     1      35.150  31.503 -15.594  1.00  0.00     0.180 A 
ATOM      7  C   UNL     1      38.039  33.133 -18.186  1.00  0.00     0.134 A 
ATOM      8  C   UNL     1      35.818  33.068 -17.246  1.00  0.00     0.146 A 
ATOM      9  O   UNL     1      34.841  32.563 -16.428  1.00  0.00    -0.452 OA
ATOM     10  C   UNL     1      37.672  34.227 -18.973  1.00  0.00     0.093 A 
ATOM     11  C   UNL     1      35.447  34.162 -18.032  1.00  0.00     0.094 A 
ATOM     12  C   UNL     1      36.379  34.732 -18.888  1.00  0.00     0.123 A 
BRANCH   6  13
ATOM     13  C   UNL     1      34.012  31.070 -14.759  1.00  0.00     0.021 A 
ATOM     14  C   UNL     1      34.182  30.705 -13.414  1.00  0.00     0.016 A 
ATOM     15  C   UNL     1      32.721  31.027 -15.310  1.00  0.00     0.016 A 
ATOM     16  C   UNL     1      33.093  30.290 -12.641  1.00  0.00     0.047 A 
ATOM     17  C   UNL     1      31.633  30.615 -14.538  1.00  0.00     0.047 A 
ATOM     18  C   UNL     1      31.828  30.247 -13.213  1.00  0.00     0.115 A 
BRANCH  18  19
ATOM     19  O   UNL     1      30.738  29.847 -12.498  1.00  0.00    -0.508 OA
ATOM     20  H   UNL     1      30.994  29.101 -11.933  1.00  0.00     0.293 HD
ENDBRANCH  18  19
ENDBRANCH   6  13
BRANCH   7  21
ATOM     21  O   UNL     1      39.313  32.652 -18.282  1.00  0.00    -0.507 OA
ATOM     22  H   UNL     1      39.940  33.385 -18.404  1.00  0.00     0.293 HD
ENDBRANCH   7  21
BRANCH  12  23
ATOM     23  O   UNL     1      36.066  35.800 -19.674  1.00  0.00    -0.508 OA
ATOM     24  H   UNL     1      35.226  36.186 -19.372  1.00  0.00     0.293 HD
ENDBRANCH  12  23
ENDBRANCH   1   2
BRANCH   1  25
ATOM     25  C   UNL     1      36.962  28.636 -15.466  1.00  0.00     0.339 C 
ATOM     26  O   UNL     1      38.261  28.216 -15.060  1.00  0.00    -0.332 OA
ATOM     27  C   UNL     1      36.975  29.009 -16.969  1.00  0.00     0.214 C 
ATOM     28  C   UNL     1      38.660  26.958 -15.643  1.00  0.00     0.179 C 
ATOM     29  C   UNL     1      37.816  28.020 -17.802  1.00  0.00     0.180 C 
ATOM     30  C   UNL     1      38.070  26.708 -17.047  1.00  0.00     0.177 C 
BRANCH  27  31
ATOM     31  O   UNL     1      35.648  29.046 -17.522  1.00  0.00    -0.384 OA
ATOM     32  H   UNL     1      35.562  29.867 -18.063  1.00  0.00     0.211 HD
ENDBRANCH  27  31
BRANCH  28  33
ATOM     33  C   UNL     1      40.193  26.969 -15.652  1.00  0.00     0.191 C 
BRANCH  33  34
ATOM     34  O   UNL     1      40.670  26.288 -16.816  1.00  0.00    -0.394 OA
ATOM     35  H   UNL     1      41.374  26.859 -17.185  1.00  0.00     0.210 HD
ENDBRANCH  33  34
ENDBRANCH  28  33
BRANCH  29  36
ATOM     36  O   UNL     1      39.068  28.599 -18.184  1.00  0.00    -0.387 OA
ATOM     37  H   UNL     1      39.538  27.933 -18.718  1.00  0.00     0.211 HD
ENDBRANCH  29  36
BRANCH  30  38
ATOM     38  O   UNL     1      36.826  26.004 -16.885  1.00  0.00    -0.387 OA
ATOM     39  H   UNL     1      36.435  25.877 -17.769  1.00  0.00     0.211 HD
ENDBRANCH  30  38
ENDBRANCH   1  25
TORSDOF 11
ENDMDL
MODEL 9
REMARK VINA RESULT:    -2.915      1.428      5.683
REMARK INTER + INTRA:          -3.388
REMARK INTER:                  -4.202
REMARK INTRA:                   0.814
REMARK UNBOUND:                 0.805
REMARK SMILES O=c1c(O[C@@H]2O[C@H](CO)[C@@H](O)[C@H](O)[C@H]2O)c(-c2ccc(O)cc2)oc2cc(O)cc(O)c12
REMARK SMILES IDX 4 1 3 2 1 3 2 4 32 5 16 6 30 7 25 8 24 9 29 10 26 11 27 12
REMARK SMILES IDX 17 13 18 14 23 15 19 16 22 17 20 18 21 19 31 21 28 23 5 25
REMARK SMILES IDX 6 26 14 27 7 28 12 29 10 30 15 31 8 33 9 34 13 36 11 38
REMARK H PARENT 21 20 31 22 28 24 15 32 9 35 13 37 11 39
ROOT
ATOM      1  O   UNL     1      32.727  32.525 -17.023  1.00  0.00    -0.454 OA
ENDROOT
BRANCH   1   2
ATOM      2  C   UNL     1      32.744  31.778 -15.860  1.00  0.00     0.214 A 
ATOM      3  O   UNL     1      30.427  32.045 -15.645  1.00  0.00    -0.285 OA
ATOM      4  C   UNL     1      31.451  31.588 -15.148  1.00  0.00     0.239 A 
ATOM      5  C   UNL     1      31.497  30.831 -13.877  1.00  0.00     0.111 A 
ATOM      6  C   UNL     1      33.865  31.262 -15.326  1.00  0.00     0.180 A 
ATOM      7  C   UNL     1      30.364  30.588 -13.088  1.00  0.00     0.134 A 
ATOM      8  C   UNL     1      32.735  30.335 -13.459  1.00  0.00     0.146 A 
ATOM      9  O   UNL     1      33.899  30.518 -14.160  1.00  0.00    -0.452 OA
ATOM     10  C   UNL     1      30.474  29.861 -11.901  1.00  0.00     0.093 A 
ATOM     11  C   UNL     1      32.849  29.606 -12.272  1.00  0.00     0.094 A 
ATOM     12  C   UNL     1      31.716  29.377 -11.504  1.00  0.00     0.123 A 
BRANCH   6  13
ATOM     13  C   UNL     1      35.188  31.392 -15.971  1.00  0.00     0.021 A 
ATOM     14  C   UNL     1      35.990  30.271 -16.238  1.00  0.00     0.016 A 
ATOM     15  C   UNL     1      35.661  32.661 -16.340  1.00  0.00     0.016 A 
ATOM     16  C   UNL     1      37.242  30.414 -16.843  1.00  0.00     0.047 A 
ATOM     17  C   UNL     1      36.910  32.805 -16.946  1.00  0.00     0.047 A 
ATOM     18  C   UNL     1      37.691  31.682 -17.189  1.00  0.00     0.115 A 
BRANCH  18  19
ATOM     19  O   UNL     1      38.906  31.869 -17.779  1.00  0.00    -0.508 OA
ATOM     20  H   UNL     1      38.954  31.315 -18.575  1.00  0.00     0.293 HD
ENDBRANCH  18  19
ENDBRANCH   6  13
BRANCH   7  21
ATOM     21  O   UNL     1      29.137  31.057 -13.461  1.00  0.00    -0.507 OA
ATOM     22  H   UNL     1      29.040  31.988 -13.201  1.00  0.00     0.293 HD
ENDBRANCH   7  21
BRANCH  12  23
ATOM     23  O   UNL     1      31.776  28.673 -10.338  1.00  0.00    -0.508 OA
ATOM     24  H   UNL     1      31.430  29.220  -9.614  1.00  0.00     0.293 HD
ENDBRANCH  12  23
ENDBRANCH   1   2
BRANCH   1  25
ATOM     25  C   UNL     1      31.408  33.022 -17.316  1.00  0.00     0.339 C 
ATOM     26  O   UNL     1      30.976  32.408 -18.526  1.00  0.00    -0.332 OA
ATOM     27  C   UNL     1      31.526  34.553 -17.514  1.00  0.00     0.214 C 
ATOM     28  C   UNL     1      29.615  32.735 -18.874  1.00  0.00     0.179 C 
ATOM     29  C   UNL     1      30.358  35.117 -18.350  1.00  0.00     0.180 C 
ATOM     30  C   UNL     1      29.175  34.141 -18.413  1.00  0.00     0.177 C 
BRANCH  27  31
ATOM     31  O   UNL     1      31.559  35.254 -16.259  1.00  0.00    -0.384 OA
ATOM     32  H   UNL     1      30.653  35.230 -15.868  1.00  0.00     0.211 HD
ENDBRANCH  27  31
BRANCH  28  33
ATOM     33  C   UNL     1      29.522  32.569 -20.396  1.00  0.00     0.191 C 
BRANCH  33  34
ATOM     34  O   UNL     1      29.509  31.177 -20.726  1.00  0.00    -0.394 OA
ATOM     35  H   UNL     1      30.392  30.839 -20.474  1.00  0.00     0.210 HD
ENDBRANCH  33  34
ENDBRANCH  28  33
BRANCH  29  36
ATOM     36  O   UNL     1      30.780  35.439 -19.679  1.00  0.00    -0.387 OA
ATOM     37  H   UNL     1      30.761  36.410 -19.756  1.00  0.00     0.211 HD
ENDBRANCH  29  36
BRANCH  30  38
ATOM     38  O   UNL     1      28.592  34.014 -17.104  1.00  0.00    -0.387 OA
ATOM     39  H   UNL     1      29.137  34.529 -16.481  1.00  0.00     0.211 HD
ENDBRANCH  30  38
ENDBRANCH   1  25
TORSDOF 11
ENDMDL
