MODEL 1
REMARK VINA RESULT:    -8.440      0.000      0.000
REMARK INTER + INTRA:         -11.400
REMARK INTER:                 -10.908
REMARK INTRA:                  -0.492
REMARK UNBOUND:                -0.492
REMARK SMILES CC[C@](C)(O)C#Cc1cc2c(ccn2-c2cc(OC)nc(N)n2)cn1
REMARK SMILES IDX 7 1 8 2 9 3 10 4 11 5 12 6 13 7 14 8 24 9 25 10 6 11 3 12
REMARK SMILES IDX 4 13 2 14 1 15 5 16 15 18 16 19 23 20 17 21 21 22 20 23
REMARK SMILES IDX 18 24 19 25 22 26
REMARK H PARENT 5 17 22 27 22 28
ROOT
ATOM      1  C   UNL     1      36.685  29.456 -15.495  1.00  0.00    -0.044 C 
ATOM      2  C   UNL     1      37.587  28.472 -16.005  1.00  0.00     0.115 A 
ATOM      3  C   UNL     1      38.732  28.131 -15.298  1.00  0.00     0.065 A 
ATOM      4  C   UNL     1      39.550  27.146 -15.874  1.00  0.00     0.059 A 
ATOM      5  C   UNL     1      39.225  26.631 -17.140  1.00  0.00     0.018 A 
ATOM      6  C   UNL     1      40.278  25.772 -17.536  1.00  0.00     0.030 A 
ATOM      7  C   UNL     1      41.212  25.779 -16.532  1.00  0.00     0.094 A 
ATOM      8  N   UNL     1      40.744  26.537 -15.470  1.00  0.00    -0.301 N 
ATOM      9  C   UNL     1      38.040  27.040 -17.768  1.00  0.00     0.122 A 
ATOM     10  N   UNL     1      37.224  27.948 -17.190  1.00  0.00    -0.247 NA
ENDROOT
BRANCH   1  11
ATOM     11  C   UNL     1      35.924  30.284 -15.071  1.00  0.00    -0.062 C 
ATOM     12  C   UNL     1      34.983  31.297 -14.565  1.00  0.00     0.122 C 
ATOM     13  C   UNL     1      35.086  31.408 -13.045  1.00  0.00     0.057 C 
BRANCH  12  14
ATOM     14  C   UNL     1      33.544  31.019 -15.041  1.00  0.00     0.045 C 
ATOM     15  C   UNL     1      33.256  31.380 -16.492  1.00  0.00     0.008 C 
ENDBRANCH  12  14
BRANCH  12  16
ATOM     16  O   UNL     1      35.372  32.567 -15.098  1.00  0.00    -0.378 OA
ATOM     17  H   UNL     1      36.063  32.394 -15.761  1.00  0.00     0.212 HD
ENDBRANCH  12  16
ENDBRANCH   1  11
BRANCH   8  18
ATOM     18  C   UNL     1      41.437  26.615 -14.218  1.00  0.00     0.146 A 
ATOM     19  C   UNL     1      42.810  26.630 -14.161  1.00  0.00     0.116 A 
ATOM     20  N   UNL     1      40.674  26.723 -13.104  1.00  0.00    -0.195 NA
ATOM     21  C   UNL     1      43.346  26.714 -12.897  1.00  0.00     0.220 A 
ATOM     22  C   UNL     1      41.301  26.809 -11.931  1.00  0.00     0.225 A 
ATOM     23  N   UNL     1      42.621  26.784 -11.772  1.00  0.00    -0.177 NA
BRANCH  21  24
ATOM     24  O   UNL     1      44.728  26.729 -12.832  1.00  0.00    -0.481 OA
ATOM     25  C   UNL     1      45.331  25.585 -13.430  1.00  0.00     0.280 C 
ENDBRANCH  21  24
BRANCH  22  26
ATOM     26  N   UNL     1      40.521  26.888 -10.797  1.00  0.00    -0.368 N 
ATOM     27  H   UNL     1      39.587  26.559 -10.993  1.00  0.00     0.159 HD
ATOM     28  H   UNL     1      41.005  26.478 -10.011  1.00  0.00     0.159 HD
ENDBRANCH  22  26
ENDBRANCH   8  18
TORSDOF 6
ENDMDL
MODEL 2
REMARK VINA RESULT:    -7.835      1.238      2.068
REMARK INTER + INTRA:         -10.617
REMARK INTER:                 -10.085
REMARK INTRA:                  -0.532
REMARK UNBOUND:                -0.492
REMARK SMILES CC[C@](C)(O)C#Cc1cc2c(ccn2-c2cc(OC)nc(N)n2)cn1
REMARK SMILES IDX 7 1 8 2 9 3 10 4 11 5 12 6 13 7 14 8 24 9 25 10 6 11 3 12
REMARK SMILES IDX 4 13 2 14 1 15 5 16 15 18 16 19 23 20 17 21 21 22 20 23
REMARK SMILES IDX 18 24 19 25 22 26
REMARK H PARENT 5 17 22 27 22 28
ROOT
ATOM      1  C   UNL     1      36.686  29.473 -15.560  1.00  0.00    -0.044 C 
ATOM      2  C   UNL     1      37.551  28.474 -16.103  1.00  0.00     0.115 A 
ATOM      3  C   UNL     1      38.727  28.127 -15.451  1.00  0.00     0.065 A 
ATOM      4  C   UNL     1      39.504  27.127 -16.057  1.00  0.00     0.059 A 
ATOM      5  C   UNL     1      39.110  26.603 -17.300  1.00  0.00     0.018 A 
ATOM      6  C   UNL     1      40.132  25.728 -17.739  1.00  0.00     0.030 A 
ATOM      7  C   UNL     1      41.116  25.735 -16.783  1.00  0.00     0.094 A 
ATOM      8  N   UNL     1      40.710  26.509 -15.708  1.00  0.00    -0.301 N 
ATOM      9  C   UNL     1      37.898  27.018 -17.872  1.00  0.00     0.122 A 
ATOM     10  N   UNL     1      37.122  27.941 -17.263  1.00  0.00    -0.247 NA
ENDROOT
BRANCH   1  11
ATOM     11  C   UNL     1      35.957  30.313 -15.107  1.00  0.00    -0.062 C 
ATOM     12  C   UNL     1      35.054  31.343 -14.565  1.00  0.00     0.122 C 
ATOM     13  C   UNL     1      35.219  31.454 -13.050  1.00  0.00     0.057 C 
BRANCH  12  14
ATOM     14  C   UNL     1      33.593  31.088 -14.983  1.00  0.00     0.045 C 
ATOM     15  C   UNL     1      33.249  31.464 -16.418  1.00  0.00     0.008 C 
ENDBRANCH  12  14
BRANCH  12  16
ATOM     16  O   UNL     1      35.442  32.606 -15.116  1.00  0.00    -0.378 OA
ATOM     17  H   UNL     1      36.401  32.562 -15.271  1.00  0.00     0.212 HD
ENDBRANCH  12  16
ENDBRANCH   1  11
BRANCH   8  18
ATOM     18  C   UNL     1      41.466  26.592 -14.493  1.00  0.00     0.146 A 
ATOM     19  C   UNL     1      40.848  26.703 -13.271  1.00  0.00     0.116 A 
ATOM     20  N   UNL     1      42.813  26.504 -14.607  1.00  0.00    -0.195 NA
ATOM     21  C   UNL     1      41.692  26.767 -12.187  1.00  0.00     0.220 A 
ATOM     22  C   UNL     1      43.535  26.566 -13.487  1.00  0.00     0.225 A 
ATOM     23  N   UNL     1      43.029  26.721 -12.267  1.00  0.00    -0.177 NA
BRANCH  21  24
ATOM     24  O   UNL     1      41.076  26.880 -10.954  1.00  0.00    -0.481 OA
ATOM     25  C   UNL     1      39.654  26.863 -11.033  1.00  0.00     0.280 C 
ENDBRANCH  21  24
BRANCH  22  26
ATOM     26  N   UNL     1      44.906  26.507 -13.610  1.00  0.00    -0.368 N 
ATOM     27  H   UNL     1      45.165  25.811 -14.294  1.00  0.00     0.159 HD
ATOM     28  H   UNL     1      45.287  27.436 -13.722  1.00  0.00     0.159 HD
ENDBRANCH  22  26
ENDBRANCH   8  18
TORSDOF 6
ENDMDL
MODEL 3
REMARK VINA RESULT:    -7.102      2.469      8.959
REMARK INTER + INTRA:          -9.670
REMARK INTER:                  -9.349
REMARK INTRA:                  -0.321
REMARK UNBOUND:                -0.492
REMARK SMILES CC[C@](C)(O)C#Cc1cc2c(ccn2-c2cc(OC)nc(N)n2)cn1
REMARK SMILES IDX 7 1 8 2 9 3 10 4 11 5 12 6 13 7 14 8 24 9 25 10 6 11 3 12
REMARK SMILES IDX 4 13 2 14 1 15 5 16 15 18 16 19 23 20 17 21 21 22 20 23
REMARK SMILES IDX 18 24 19 25 22 26
REMARK H PARENT 5 17 22 27 22 28
ROOT
ATOM      1  C   UNL     1      44.788  26.194 -13.368  1.00  0.00    -0.044 C 
ATOM      2  C   UNL     1      43.444  26.496 -12.989  1.00  0.00     0.115 A 
ATOM      3  C   UNL     1      42.467  26.700 -13.955  1.00  0.00     0.065 A 
ATOM      4  C   UNL     1      41.174  26.980 -13.484  1.00  0.00     0.059 A 
ATOM      5  C   UNL     1      40.957  27.120 -12.103  1.00  0.00     0.018 A 
ATOM      6  C   UNL     1      39.615  27.533 -11.921  1.00  0.00     0.030 A 
ATOM      7  C   UNL     1      39.048  27.643 -13.165  1.00  0.00     0.094 A 
ATOM      8  N   UNL     1      39.954  27.220 -14.125  1.00  0.00    -0.301 N 
ATOM      9  C   UNL     1      42.013  26.887 -11.210  1.00  0.00     0.122 A 
ATOM     10  N   UNL     1      43.245  26.565 -11.660  1.00  0.00    -0.247 NA
ENDROOT
BRANCH   1  11
ATOM     11  C   UNL     1      45.920  25.941 -13.682  1.00  0.00    -0.062 C 
ATOM     12  C   UNL     1      47.309  25.647 -14.071  1.00  0.00     0.122 C 
ATOM     13  C   UNL     1      47.775  24.338 -13.435  1.00  0.00     0.057 C 
BRANCH  12  14
ATOM     14  C   UNL     1      48.247  26.826 -13.749  1.00  0.00     0.045 C 
ATOM     15  C   UNL     1      49.220  27.208 -14.857  1.00  0.00     0.008 C 
ENDBRANCH  12  14
BRANCH  12  16
ATOM     16  O   UNL     1      47.340  25.451 -15.489  1.00  0.00    -0.378 OA
ATOM     17  H   UNL     1      46.463  25.701 -15.826  1.00  0.00     0.212 HD
ENDBRANCH  12  16
ENDBRANCH   1  11
BRANCH   8  18
ATOM     18  C   UNL     1      39.600  27.085 -15.507  1.00  0.00     0.146 A 
ATOM     19  C   UNL     1      38.482  27.696 -16.023  1.00  0.00     0.116 A 
ATOM     20  N   UNL     1      40.446  26.370 -16.287  1.00  0.00    -0.195 NA
ATOM     21  C   UNL     1      38.263  27.491 -17.364  1.00  0.00     0.220 A 
ATOM     22  C   UNL     1      40.141  26.244 -17.579  1.00  0.00     0.225 A 
ATOM     23  N   UNL     1      39.059  26.758 -18.156  1.00  0.00    -0.177 NA
BRANCH  21  24
ATOM     24  O   UNL     1      37.139  28.102 -17.889  1.00  0.00    -0.481 OA
ATOM     25  C   UNL     1      36.687  29.208 -17.113  1.00  0.00     0.280 C 
ENDBRANCH  21  24
BRANCH  22  26
ATOM     26  N   UNL     1      40.988  25.490 -18.362  1.00  0.00    -0.368 N 
ATOM     27  H   UNL     1      41.921  25.500 -17.976  1.00  0.00     0.159 HD
ATOM     28  H   UNL     1      40.574  24.590 -18.558  1.00  0.00     0.159 HD
ENDBRANCH  22  26
ENDBRANCH   8  18
TORSDOF 6
ENDMDL
MODEL 4
REMARK VINA RESULT:    -6.912      2.348      7.643
REMARK INTER + INTRA:          -9.424
REMARK INTER:                  -8.894
REMARK INTRA:                  -0.531
REMARK UNBOUND:                -0.492
REMARK SMILES CC[C@](C)(O)C#Cc1cc2c(ccn2-c2cc(OC)nc(N)n2)cn1
REMARK SMILES IDX 7 1 8 2 9 3 10 4 11 5 12 6 13 7 14 8 24 9 25 10 6 11 3 12
REMARK SMILES IDX 4 13 2 14 1 15 5 16 15 18 16 19 23 20 17 21 21 22 20 23
REMARK SMILES IDX 18 24 19 25 22 26
REMARK H PARENT 5 17 22 27 22 28
ROOT
ATOM      1  C   UNL     1      40.510  27.059 -14.897  1.00  0.00    -0.044 C 
ATOM      2  C   UNL     1      39.479  27.218 -15.872  1.00  0.00     0.115 A 
ATOM      3  C   UNL     1      38.571  28.265 -15.775  1.00  0.00     0.065 A 
ATOM      4  C   UNL     1      37.602  28.345 -16.788  1.00  0.00     0.059 A 
ATOM      5  C   UNL     1      37.545  27.343 -17.772  1.00  0.00     0.018 A 
ATOM      6  C   UNL     1      36.404  27.593 -18.571  1.00  0.00     0.030 A 
ATOM      7  C   UNL     1      35.790  28.713 -18.071  1.00  0.00     0.094 A 
ATOM      8  N   UNL     1      36.556  29.239 -17.043  1.00  0.00    -0.301 N 
ATOM      9  C   UNL     1      38.515  26.330 -17.783  1.00  0.00     0.122 A 
ATOM     10  N   UNL     1      39.481  26.282 -16.840  1.00  0.00    -0.247 NA
ENDROOT
BRANCH   1  11
ATOM     11  C   UNL     1      41.379  26.920 -14.078  1.00  0.00    -0.062 C 
ATOM     12  C   UNL     1      42.434  26.757 -13.064  1.00  0.00     0.122 C 
ATOM     13  C   UNL     1      43.349  25.589 -13.429  1.00  0.00     0.057 C 
BRANCH  12  14
ATOM     14  C   UNL     1      41.841  26.623 -11.649  1.00  0.00     0.045 C 
ATOM     15  C   UNL     1      40.381  27.036 -11.511  1.00  0.00     0.008 C 
ENDBRANCH  12  14
BRANCH  12  16
ATOM     16  O   UNL     1      43.246  27.936 -13.078  1.00  0.00    -0.378 OA
ATOM     17  H   UNL     1      43.436  28.136 -14.011  1.00  0.00     0.212 HD
ENDBRANCH  12  16
ENDBRANCH   1  11
BRANCH   8  18
ATOM     18  C   UNL     1      36.245  30.491 -16.418  1.00  0.00     0.146 A 
ATOM     19  C   UNL     1      35.921  30.564 -15.085  1.00  0.00     0.116 A 
ATOM     20  N   UNL     1      36.336  31.598 -17.193  1.00  0.00    -0.195 NA
ATOM     21  C   UNL     1      35.651  31.827 -14.612  1.00  0.00     0.220 A 
ATOM     22  C   UNL     1      36.063  32.774 -16.627  1.00  0.00     0.225 A 
ATOM     23  N   UNL     1      35.695  32.939 -15.360  1.00  0.00    -0.177 NA
BRANCH  21  24
ATOM     24  O   UNL     1      35.322  31.908 -13.271  1.00  0.00    -0.481 OA
ATOM     25  C   UNL     1      34.202  31.102 -12.918  1.00  0.00     0.280 C 
ENDBRANCH  21  24
BRANCH  22  26
ATOM     26  N   UNL     1      36.127  33.895 -17.426  1.00  0.00    -0.368 N 
ATOM     27  H   UNL     1      36.926  34.459 -17.172  1.00  0.00     0.159 HD
ATOM     28  H   UNL     1      36.029  33.638 -18.398  1.00  0.00     0.159 HD
ENDBRANCH  22  26
ENDBRANCH   8  18
TORSDOF 6
ENDMDL
MODEL 5
REMARK VINA RESULT:    -6.629      2.240      7.586
REMARK INTER + INTRA:          -9.059
REMARK INTER:                  -8.507
REMARK INTRA:                  -0.552
REMARK UNBOUND:                -0.492
REMARK SMILES CC[C@](C)(O)C#Cc1cc2c(ccn2-c2cc(OC)nc(N)n2)cn1
REMARK SMILES IDX 7 1 8 2 9 3 10 4 11 5 12 6 13 7 14 8 24 9 25 10 6 11 3 12
REMARK SMILES IDX 4 13 2 14 1 15 5 16 15 18 16 19 23 20 17 21 21 22 20 23
REMARK SMILES IDX 18 24 19 25 22 26
REMARK H PARENT 5 17 22 27 22 28
ROOT
ATOM      1  C   UNL     1      40.870  26.986 -14.751  1.00  0.00    -0.044 C 
ATOM      2  C   UNL     1      39.819  27.154 -15.704  1.00  0.00     0.115 A 
ATOM      3  C   UNL     1      38.864  28.148 -15.534  1.00  0.00     0.065 A 
ATOM      4  C   UNL     1      37.878  28.241 -16.530  1.00  0.00     0.059 A 
ATOM      5  C   UNL     1      37.856  27.299 -17.572  1.00  0.00     0.018 A 
ATOM      6  C   UNL     1      36.693  27.540 -18.342  1.00  0.00     0.030 A 
ATOM      7  C   UNL     1      36.034  28.598 -17.770  1.00  0.00     0.094 A 
ATOM      8  N   UNL     1      36.788  29.098 -16.719  1.00  0.00    -0.301 N 
ATOM      9  C   UNL     1      38.872  26.336 -17.655  1.00  0.00     0.122 A 
ATOM     10  N   UNL     1      39.853  26.279 -16.727  1.00  0.00    -0.247 NA
ENDROOT
BRANCH   1  11
ATOM     11  C   UNL     1      41.755  26.841 -13.951  1.00  0.00    -0.062 C 
ATOM     12  C   UNL     1      42.831  26.670 -12.961  1.00  0.00     0.122 C 
ATOM     13  C   UNL     1      43.714  25.481 -13.332  1.00  0.00     0.057 C 
BRANCH  12  14
ATOM     14  C   UNL     1      42.268  26.565 -11.530  1.00  0.00     0.045 C 
ATOM     15  C   UNL     1      40.815  26.990 -11.367  1.00  0.00     0.008 C 
ENDBRANCH  12  14
BRANCH  12  16
ATOM     16  O   UNL     1      43.664  27.833 -13.008  1.00  0.00    -0.378 OA
ATOM     17  H   UNL     1      44.376  27.643 -13.643  1.00  0.00     0.212 HD
ENDBRANCH  12  16
ENDBRANCH   1  11
BRANCH   8  18
ATOM     18  C   UNL     1      36.426  30.294 -16.017  1.00  0.00     0.146 A 
ATOM     19  C   UNL     1      36.424  31.517 -16.642  1.00  0.00     0.116 A 
ATOM     20  N   UNL     1      36.040  30.150 -14.727  1.00  0.00    -0.195 NA
ATOM     21  C   UNL     1      36.050  32.581 -15.854  1.00  0.00     0.220 A 
ATOM     22  C   UNL     1      35.686  31.249 -14.060  1.00  0.00     0.225 A 
ATOM     23  N   UNL     1      35.698  32.479 -14.565  1.00  0.00    -0.177 NA
BRANCH  21  24
ATOM     24  O   UNL     1      36.047  33.816 -16.477  1.00  0.00    -0.481 OA
ATOM     25  C   UNL     1      35.248  33.849 -17.656  1.00  0.00     0.280 C 
ENDBRANCH  21  24
BRANCH  22  26
ATOM     26  N   UNL     1      35.323  31.103 -12.739  1.00  0.00    -0.368 N 
ATOM     27  H   UNL     1      35.716  31.849 -12.184  1.00  0.00     0.159 HD
ATOM     28  H   UNL     1      34.328  30.943 -12.666  1.00  0.00     0.159 HD
ENDBRANCH  22  26
ENDBRANCH   8  18
TORSDOF 6
ENDMDL
MODEL 6
REMARK VINA RESULT:    -5.635      2.891      8.238
REMARK INTER + INTRA:          -7.774
REMARK INTER:                  -7.506
REMARK INTRA:                  -0.268
REMARK UNBOUND:                -0.492
REMARK SMILES CC[C@](C)(O)C#Cc1cc2c(ccn2-c2cc(OC)nc(N)n2)cn1
REMARK SMILES IDX 7 1 8 2 9 3 10 4 11 5 12 6 13 7 14 8 24 9 25 10 6 11 3 12
REMARK SMILES IDX 4 13 2 14 1 15 5 16 15 18 16 19 23 20 17 21 21 22 20 23
REMARK SMILES IDX 18 24 19 25 22 26
REMARK H PARENT 5 17 22 27 22 28
ROOT
ATOM      1  C   UNL     1      39.319  27.163 -15.355  1.00  0.00    -0.044 C 
ATOM      2  C   UNL     1      38.390  27.361 -16.423  1.00  0.00     0.115 A 
ATOM      3  C   UNL     1      37.499  28.425 -16.395  1.00  0.00     0.065 A 
ATOM      4  C   UNL     1      36.634  28.543 -17.495  1.00  0.00     0.059 A 
ATOM      5  C   UNL     1      36.653  27.559 -18.498  1.00  0.00     0.018 A 
ATOM      6  C   UNL     1      35.600  27.846 -19.399  1.00  0.00     0.030 A 
ATOM      7  C   UNL     1      34.964  28.971 -18.941  1.00  0.00     0.094 A 
ATOM      8  N   UNL     1      35.637  29.464 -17.834  1.00  0.00    -0.301 N 
ATOM      9  C   UNL     1      37.599  26.525 -18.433  1.00  0.00     0.122 A 
ATOM     10  N   UNL     1      38.468  26.441 -17.403  1.00  0.00    -0.247 NA
ENDROOT
BRANCH   1  11
ATOM     11  C   UNL     1      40.101  26.992 -14.459  1.00  0.00    -0.062 C 
ATOM     12  C   UNL     1      41.070  26.782 -13.371  1.00  0.00     0.122 C 
ATOM     13  C   UNL     1      40.472  27.212 -12.032  1.00  0.00     0.057 C 
BRANCH  12  14
ATOM     14  C   UNL     1      42.412  27.478 -13.669  1.00  0.00     0.045 C 
ATOM     15  C   UNL     1      43.566  27.092 -12.753  1.00  0.00     0.008 C 
ENDBRANCH  12  14
BRANCH  12  16
ATOM     16  O   UNL     1      41.329  25.377 -13.274  1.00  0.00    -0.378 OA
ATOM     17  H   UNL     1      42.261  25.246 -13.524  1.00  0.00     0.212 HD
ENDBRANCH  12  16
ENDBRANCH   1  11
BRANCH   8  18
ATOM     18  C   UNL     1      35.293  30.712 -17.220  1.00  0.00     0.146 A 
ATOM     19  C   UNL     1      34.430  31.594 -17.826  1.00  0.00     0.116 A 
ATOM     20  N   UNL     1      35.818  30.955 -15.995  1.00  0.00    -0.195 NA
ATOM     21  C   UNL     1      34.180  32.750 -17.126  1.00  0.00     0.220 A 
ATOM     22  C   UNL     1      35.498  32.106 -15.401  1.00  0.00     0.225 A 
ATOM     23  N   UNL     1      34.712  33.039 -15.929  1.00  0.00    -0.177 NA
BRANCH  21  24
ATOM     24  O   UNL     1      33.314  33.643 -17.731  1.00  0.00    -0.481 OA
ATOM     25  C   UNL     1      32.022  33.094 -17.974  1.00  0.00     0.280 C 
ENDBRANCH  21  24
BRANCH  22  26
ATOM     26  N   UNL     1      36.059  32.362 -14.168  1.00  0.00    -0.368 N 
ATOM     27  H   UNL     1      35.470  32.992 -13.643  1.00  0.00     0.159 HD
ATOM     28  H   UNL     1      36.332  31.499 -13.722  1.00  0.00     0.159 HD
ENDBRANCH  22  26
ENDBRANCH   8  18
TORSDOF 6
ENDMDL
