MODEL 1
REMARK VINA RESULT:    -7.097      0.000      0.000
REMARK INTER + INTRA:          -9.391
REMARK INTER:                  -8.757
REMARK INTRA:                  -0.634
REMARK UNBOUND:                -0.634
REMARK SMILES C#CC[N@H+](C)[C@H](C)Cc1ccccc1
REMARK SMILES IDX 4 1 5 2 3 4 2 5 1 6 6 7 7 8 8 9 9 10 10 11 14 12 11 13 13 14
REMARK SMILES IDX 12 15
REMARK H PARENT 4 3
ROOT
ATOM      1  N   UNL     1      31.935  32.682 -17.018  1.00  0.00    -0.325 N 
ATOM      2  C   UNL     1      31.484  33.321 -18.303  1.00  0.00     0.333 C 
ATOM      3  H   UNL     1      31.727  33.366 -16.277  1.00  0.00     0.348 HD
ENDROOT
BRANCH   1   4
ATOM      4  C   UNL     1      31.071  31.488 -16.668  1.00  0.00     0.353 C 
ATOM      5  C   UNL     1      31.330  31.101 -15.281  1.00  0.00    -0.047 C 
ATOM      6  C   UNL     1      31.537  30.784 -14.141  1.00  0.00     0.010 C 
ENDBRANCH   1   4
BRANCH   1   7
ATOM      7  C   UNL     1      33.447  32.402 -16.918  1.00  0.00     0.185 C 
ATOM      8  C   UNL     1      34.201  33.589 -17.527  1.00  0.00     0.075 C 
BRANCH   7   9
ATOM      9  C   UNL     1      33.825  31.054 -17.569  1.00  0.00     0.100 C 
BRANCH   9  10
ATOM     10  C   UNL     1      34.947  30.355 -16.840  1.00  0.00    -0.042 A 
ATOM     11  C   UNL     1      35.855  29.547 -17.539  1.00  0.00     0.004 A 
ATOM     12  C   UNL     1      35.102  30.515 -15.455  1.00  0.00     0.004 A 
ATOM     13  C   UNL     1      36.902  28.918 -16.864  1.00  0.00     0.000 A 
ATOM     14  C   UNL     1      36.151  29.884 -14.785  1.00  0.00     0.000 A 
ATOM     15  C   UNL     1      37.050  29.087 -15.490  1.00  0.00     0.000 A 
ENDBRANCH   9  10
ENDBRANCH   7   9
ENDBRANCH   1   7
TORSDOF 4
ENDMDL
MODEL 2
REMARK VINA RESULT:    -7.048      4.552      7.202
REMARK INTER + INTRA:          -9.330
REMARK INTER:                  -9.083
REMARK INTRA:                  -0.247
REMARK UNBOUND:                -0.634
REMARK SMILES C#CC[N@H+](C)[C@H](C)Cc1ccccc1
REMARK SMILES IDX 4 1 5 2 3 4 2 5 1 6 6 7 7 8 8 9 9 10 10 11 14 12 11 13 13 14
REMARK SMILES IDX 12 15
REMARK H PARENT 4 3
ROOT
ATOM      1  N   UNL     1      37.668  28.270 -15.798  1.00  0.00    -0.325 N 
ATOM      2  C   UNL     1      37.766  29.424 -14.839  1.00  0.00     0.333 C 
ATOM      3  H   UNL     1      36.886  27.692 -15.463  1.00  0.00     0.348 HD
ENDROOT
BRANCH   1   4
ATOM      4  C   UNL     1      37.220  28.734 -17.169  1.00  0.00     0.353 C 
ATOM      5  C   UNL     1      36.034  29.578 -17.025  1.00  0.00    -0.047 C 
ATOM      6  C   UNL     1      35.062  30.276 -16.908  1.00  0.00     0.010 C 
ENDBRANCH   1   4
BRANCH   1   7
ATOM      7  C   UNL     1      38.894  27.338 -15.832  1.00  0.00     0.185 C 
ATOM      8  C   UNL     1      38.777  26.427 -17.059  1.00  0.00     0.075 C 
BRANCH   7   9
ATOM      9  C   UNL     1      39.053  26.550 -14.514  1.00  0.00     0.100 C 
BRANCH   9  10
ATOM     10  C   UNL     1      40.466  26.589 -13.984  1.00  0.00    -0.042 A 
ATOM     11  C   UNL     1      40.721  26.997 -12.667  1.00  0.00     0.004 A 
ATOM     12  C   UNL     1      41.541  26.206 -14.799  1.00  0.00     0.004 A 
ATOM     13  C   UNL     1      42.026  27.013 -12.175  1.00  0.00     0.000 A 
ATOM     14  C   UNL     1      42.845  26.224 -14.303  1.00  0.00     0.000 A 
ATOM     15  C   UNL     1      43.086  26.626 -12.991  1.00  0.00     0.000 A 
ENDBRANCH   9  10
ENDBRANCH   7   9
ENDBRANCH   1   7
TORSDOF 4
ENDMDL
MODEL 3
REMARK VINA RESULT:    -7.029      2.107      3.184
REMARK INTER + INTRA:          -9.306
REMARK INTER:                  -8.628
REMARK INTRA:                  -0.678
REMARK UNBOUND:                -0.634
REMARK SMILES C#CC[N@H+](C)[C@H](C)Cc1ccccc1
REMARK SMILES IDX 4 1 5 2 3 4 2 5 1 6 6 7 7 8 8 9 9 10 10 11 14 12 11 13 13 14
REMARK SMILES IDX 12 15
REMARK H PARENT 4 3
ROOT
ATOM      1  N   UNL     1      34.803  31.570 -16.464  1.00  0.00    -0.325 N 
ATOM      2  C   UNL     1      34.167  31.369 -17.812  1.00  0.00     0.333 C 
ATOM      3  H   UNL     1      34.831  32.588 -16.316  1.00  0.00     0.348 HD
ENDROOT
BRANCH   1   4
ATOM      4  C   UNL     1      33.907  31.061 -15.354  1.00  0.00     0.353 C 
ATOM      5  C   UNL     1      34.572  31.270 -14.068  1.00  0.00    -0.047 C 
ATOM      6  C   UNL     1      35.115  31.446 -13.011  1.00  0.00     0.010 C 
ENDBRANCH   1   4
BRANCH   1   7
ATOM      7  C   UNL     1      36.263  31.090 -16.349  1.00  0.00     0.185 C 
ATOM      8  C   UNL     1      37.169  32.130 -17.016  1.00  0.00     0.075 C 
BRANCH   7   9
ATOM      9  C   UNL     1      36.449  29.672 -16.931  1.00  0.00     0.100 C 
BRANCH   9  10
ATOM     10  C   UNL     1      37.441  28.850 -16.144  1.00  0.00    -0.042 A 
ATOM     11  C   UNL     1      37.964  27.664 -16.677  1.00  0.00     0.004 A 
ATOM     12  C   UNL     1      37.862  29.270 -14.874  1.00  0.00     0.004 A 
ATOM     13  C   UNL     1      38.895  26.917 -15.955  1.00  0.00     0.000 A 
ATOM     14  C   UNL     1      38.793  28.520 -14.155  1.00  0.00     0.000 A 
ATOM     15  C   UNL     1      39.310  27.345 -14.696  1.00  0.00     0.000 A 
ENDBRANCH   9  10
ENDBRANCH   7   9
ENDBRANCH   1   7
TORSDOF 4
ENDMDL
MODEL 4
REMARK VINA RESULT:    -6.973      5.806      9.575
REMARK INTER + INTRA:          -9.238
REMARK INTER:                  -8.845
REMARK INTRA:                  -0.393
REMARK UNBOUND:                -0.634
REMARK SMILES C#CC[N@H+](C)[C@H](C)Cc1ccccc1
REMARK SMILES IDX 4 1 5 2 3 4 2 5 1 6 6 7 7 8 8 9 9 10 10 11 14 12 11 13 13 14
REMARK SMILES IDX 12 15
REMARK H PARENT 4 3
ROOT
ATOM      1  N   UNL     1      42.053  26.232 -14.150  1.00  0.00    -0.325 N 
ATOM      2  C   UNL     1      42.083  25.795 -15.589  1.00  0.00     0.333 C 
ATOM      3  H   UNL     1      41.977  25.369 -13.596  1.00  0.00     0.348 HD
ENDROOT
BRANCH   1   4
ATOM      4  C   UNL     1      43.383  26.823 -13.729  1.00  0.00     0.353 C 
ATOM      5  C   UNL     1      44.404  25.777 -13.762  1.00  0.00    -0.047 C 
ATOM      6  C   UNL     1      45.245  24.919 -13.794  1.00  0.00     0.010 C 
ENDBRANCH   1   4
BRANCH   1   7
ATOM      7  C   UNL     1      40.839  27.095 -13.752  1.00  0.00     0.185 C 
ATOM      8  C   UNL     1      40.856  27.281 -12.231  1.00  0.00     0.075 C 
BRANCH   7   9
ATOM      9  C   UNL     1      39.514  26.494 -14.267  1.00  0.00     0.100 C 
BRANCH   9  10
ATOM     10  C   UNL     1      38.712  27.479 -15.084  1.00  0.00    -0.042 A 
ATOM     11  C   UNL     1      38.319  28.706 -14.533  1.00  0.00     0.004 A 
ATOM     12  C   UNL     1      38.361  27.182 -16.409  1.00  0.00     0.004 A 
ATOM     13  C   UNL     1      37.595  29.622 -15.297  1.00  0.00     0.000 A 
ATOM     14  C   UNL     1      37.636  28.101 -17.169  1.00  0.00     0.000 A 
ATOM     15  C   UNL     1      37.255  29.321 -16.613  1.00  0.00     0.000 A 
ENDBRANCH   9  10
ENDBRANCH   7   9
ENDBRANCH   1   7
TORSDOF 4
ENDMDL
MODEL 5
REMARK VINA RESULT:    -6.926      3.286      6.687
REMARK INTER + INTRA:          -9.179
REMARK INTER:                  -8.831
REMARK INTRA:                  -0.348
REMARK UNBOUND:                -0.634
REMARK SMILES C#CC[N@H+](C)[C@H](C)Cc1ccccc1
REMARK SMILES IDX 4 1 5 2 3 4 2 5 1 6 6 7 7 8 8 9 9 10 10 11 14 12 11 13 13 14
REMARK SMILES IDX 12 15
REMARK H PARENT 4 3
ROOT
ATOM      1  N   UNL     1      38.581  27.476 -14.883  1.00  0.00    -0.325 N 
ATOM      2  C   UNL     1      39.730  26.676 -15.433  1.00  0.00     0.333 C 
ATOM      3  H   UNL     1      38.008  26.810 -14.347  1.00  0.00     0.348 HD
ENDROOT
BRANCH   1   4
ATOM      4  C   UNL     1      39.053  28.473 -13.846  1.00  0.00     0.353 C 
ATOM      5  C   UNL     1      39.753  27.758 -12.778  1.00  0.00    -0.047 C 
ATOM      6  C   UNL     1      40.332  27.173 -11.903  1.00  0.00     0.010 C 
ENDBRANCH   1   4
BRANCH   1   7
ATOM      7  C   UNL     1      37.638  28.083 -15.940  1.00  0.00     0.185 C 
ATOM      8  C   UNL     1      38.091  27.607 -17.324  1.00  0.00     0.075 C 
BRANCH   7   9
ATOM      9  C   UNL     1      37.566  29.622 -15.829  1.00  0.00     0.100 C 
BRANCH   9  10
ATOM     10  C   UNL     1      36.162  30.148 -15.998  1.00  0.00    -0.042 A 
ATOM     11  C   UNL     1      35.403  30.523 -14.881  1.00  0.00     0.004 A 
ATOM     12  C   UNL     1      35.602  30.280 -17.277  1.00  0.00     0.004 A 
ATOM     13  C   UNL     1      34.112  31.028 -15.042  1.00  0.00     0.000 A 
ATOM     14  C   UNL     1      34.310  30.785 -17.434  1.00  0.00     0.000 A 
ATOM     15  C   UNL     1      33.567  31.159 -16.317  1.00  0.00     0.000 A 
ENDBRANCH   9  10
ENDBRANCH   7   9
ENDBRANCH   1   7
TORSDOF 4
ENDMDL
MODEL 6
REMARK VINA RESULT:    -6.824      2.060      3.556
REMARK INTER + INTRA:          -9.054
REMARK INTER:                  -8.327
REMARK INTRA:                  -0.727
REMARK UNBOUND:                -0.634
REMARK SMILES C#CC[N@H+](C)[C@H](C)Cc1ccccc1
REMARK SMILES IDX 4 1 5 2 3 4 2 5 1 6 6 7 7 8 8 9 9 10 10 11 14 12 11 13 13 14
REMARK SMILES IDX 12 15
REMARK H PARENT 4 3
ROOT
ATOM      1  N   UNL     1      34.848  32.135 -15.963  1.00  0.00    -0.325 N 
ATOM      2  C   UNL     1      35.716  33.094 -16.730  1.00  0.00     0.333 C 
ATOM      3  H   UNL     1      34.398  32.694 -15.224  1.00  0.00     0.348 HD
ENDROOT
BRANCH   1   4
ATOM      4  C   UNL     1      33.692  31.645 -16.809  1.00  0.00     0.353 C 
ATOM      5  C   UNL     1      34.197  30.711 -17.815  1.00  0.00    -0.047 C 
ATOM      6  C   UNL     1      34.610  29.940 -18.639  1.00  0.00     0.010 C 
ENDBRANCH   1   4
BRANCH   1   7
ATOM      7  C   UNL     1      35.602  31.006 -15.233  1.00  0.00     0.185 C 
ATOM      8  C   UNL     1      35.414  31.194 -13.724  1.00  0.00     0.075 C 
BRANCH   7   9
ATOM      9  C   UNL     1      37.088  30.946 -15.649  1.00  0.00     0.100 C 
BRANCH   9  10
ATOM     10  C   UNL     1      37.633  29.539 -15.644  1.00  0.00    -0.042 A 
ATOM     11  C   UNL     1      37.477  28.712 -16.766  1.00  0.00     0.004 A 
ATOM     12  C   UNL     1      38.313  29.044 -14.522  1.00  0.00     0.004 A 
ATOM     13  C   UNL     1      37.999  27.418 -16.765  1.00  0.00     0.000 A 
ATOM     14  C   UNL     1      38.833  27.749 -14.525  1.00  0.00     0.000 A 
ATOM     15  C   UNL     1      38.677  26.938 -15.647  1.00  0.00     0.000 A 
ENDBRANCH   9  10
ENDBRANCH   7   9
ENDBRANCH   1   7
TORSDOF 4
ENDMDL
MODEL 7
REMARK VINA RESULT:    -6.792      2.803      4.850
REMARK INTER + INTRA:          -9.014
REMARK INTER:                  -9.038
REMARK INTRA:                   0.024
REMARK UNBOUND:                -0.634
REMARK SMILES C#CC[N@H+](C)[C@H](C)Cc1ccccc1
REMARK SMILES IDX 4 1 5 2 3 4 2 5 1 6 6 7 7 8 8 9 9 10 10 11 14 12 11 13 13 14
REMARK SMILES IDX 12 15
REMARK H PARENT 4 3
ROOT
ATOM      1  N   UNL     1      35.580  29.872 -15.896  1.00  0.00    -0.325 N 
ATOM      2  C   UNL     1      34.768  30.922 -15.190  1.00  0.00     0.333 C 
ATOM      3  H   UNL     1      35.212  28.967 -15.570  1.00  0.00     0.348 HD
ENDROOT
BRANCH   1   4
ATOM      4  C   UNL     1      35.297  29.869 -17.384  1.00  0.00     0.353 C 
ATOM      5  C   UNL     1      34.450  31.015 -17.713  1.00  0.00    -0.047 C 
ATOM      6  C   UNL     1      33.758  31.959 -17.985  1.00  0.00     0.010 C 
ENDBRANCH   1   4
BRANCH   1   7
ATOM      7  C   UNL     1      37.082  29.861 -15.552  1.00  0.00     0.185 C 
ATOM      8  C   UNL     1      37.752  31.036 -16.271  1.00  0.00     0.075 C 
BRANCH   7   9
ATOM      9  C   UNL     1      37.738  28.503 -15.885  1.00  0.00     0.100 C 
BRANCH   9  10
ATOM     10  C   UNL     1      38.602  27.987 -14.760  1.00  0.00    -0.042 A 
ATOM     11  C   UNL     1      38.935  28.818 -13.681  1.00  0.00     0.004 A 
ATOM     12  C   UNL     1      39.073  26.666 -14.774  1.00  0.00     0.004 A 
ATOM     13  C   UNL     1      39.718  28.332 -12.633  1.00  0.00     0.000 A 
ATOM     14  C   UNL     1      39.856  26.185 -13.724  1.00  0.00     0.000 A 
ATOM     15  C   UNL     1      40.176  27.017 -12.654  1.00  0.00     0.000 A 
ENDBRANCH   9  10
ENDBRANCH   7   9
ENDBRANCH   1   7
TORSDOF 4
ENDMDL
MODEL 8
REMARK VINA RESULT:    -6.667      2.156      5.194
REMARK INTER + INTRA:          -8.860
REMARK INTER:                  -8.419
REMARK INTRA:                  -0.441
REMARK UNBOUND:                -0.634
REMARK SMILES C#CC[N@H+](C)[C@H](C)Cc1ccccc1
REMARK SMILES IDX 4 1 5 2 3 4 2 5 1 6 6 7 7 8 8 9 9 10 10 11 14 12 11 13 13 14
REMARK SMILES IDX 12 15
REMARK H PARENT 4 3
ROOT
ATOM      1  N   UNL     1      36.561  30.289 -16.788  1.00  0.00    -0.325 N 
ATOM      2  C   UNL     1      37.216  31.607 -16.477  1.00  0.00     0.333 C 
ATOM      3  H   UNL     1      36.859  30.045 -17.742  1.00  0.00     0.348 HD
ENDROOT
BRANCH   1   4
ATOM      4  C   UNL     1      37.131  29.178 -15.930  1.00  0.00     0.353 C 
ATOM      5  C   UNL     1      37.593  28.094 -16.796  1.00  0.00    -0.047 C 
ATOM      6  C   UNL     1      37.978  27.204 -17.506  1.00  0.00     0.010 C 
ENDBRANCH   1   4
BRANCH   1   7
ATOM      7  C   UNL     1      35.020  30.313 -16.823  1.00  0.00     0.185 C 
ATOM      8  C   UNL     1      34.569  30.302 -18.288  1.00  0.00     0.075 C 
BRANCH   7   9
ATOM      9  C   UNL     1      34.446  31.507 -16.029  1.00  0.00     0.100 C 
BRANCH   9  10
ATOM     10  C   UNL     1      33.491  31.072 -14.945  1.00  0.00    -0.042 A 
ATOM     11  C   UNL     1      33.970  30.697 -13.682  1.00  0.00     0.004 A 
ATOM     12  C   UNL     1      32.108  31.051 -15.183  1.00  0.00     0.004 A 
ATOM     13  C   UNL     1      33.083  30.315 -12.676  1.00  0.00     0.000 A 
ATOM     14  C   UNL     1      31.224  30.667 -14.173  1.00  0.00     0.000 A 
ATOM     15  C   UNL     1      31.712  30.301 -12.921  1.00  0.00     0.000 A 
ENDBRANCH   9  10
ENDBRANCH   7   9
ENDBRANCH   1   7
TORSDOF 4
ENDMDL
MODEL 9
REMARK VINA RESULT:    -6.618      1.860      3.075
REMARK INTER + INTRA:          -8.800
REMARK INTER:                  -8.455
REMARK INTRA:                  -0.345
REMARK UNBOUND:                -0.634
REMARK SMILES C#CC[N@H+](C)[C@H](C)Cc1ccccc1
REMARK SMILES IDX 4 1 5 2 3 4 2 5 1 6 6 7 7 8 8 9 9 10 10 11 14 12 11 13 13 14
REMARK SMILES IDX 12 15
REMARK H PARENT 4 3
ROOT
ATOM      1  N   UNL     1      34.289  30.748 -15.427  1.00  0.00    -0.325 N 
ATOM      2  C   UNL     1      33.895  30.998 -13.997  1.00  0.00     0.333 C 
ATOM      3  H   UNL     1      33.928  29.812 -15.658  1.00  0.00     0.348 HD
ENDROOT
BRANCH   1   4
ATOM      4  C   UNL     1      33.546  31.671 -16.370  1.00  0.00     0.353 C 
ATOM      5  C   UNL     1      32.108  31.531 -16.143  1.00  0.00    -0.047 C 
ATOM      6  C   UNL     1      30.926  31.420 -15.954  1.00  0.00     0.010 C 
ENDBRANCH   1   4
BRANCH   1   7
ATOM      7  C   UNL     1      35.807  30.688 -15.689  1.00  0.00     0.185 C 
ATOM      8  C   UNL     1      36.327  32.119 -15.858  1.00  0.00     0.075 C 
BRANCH   7   9
ATOM      9  C   UNL     1      36.146  29.781 -16.892  1.00  0.00     0.100 C 
BRANCH   9  10
ATOM     10  C   UNL     1      37.181  28.735 -16.554  1.00  0.00    -0.042 A 
ATOM     11  C   UNL     1      37.672  27.874 -17.545  1.00  0.00     0.004 A 
ATOM     12  C   UNL     1      37.672  28.620 -15.245  1.00  0.00     0.004 A 
ATOM     13  C   UNL     1      38.643  26.922 -17.232  1.00  0.00     0.000 A 
ATOM     14  C   UNL     1      38.643  27.666 -14.937  1.00  0.00     0.000 A 
ATOM     15  C   UNL     1      39.128  26.818 -15.931  1.00  0.00     0.000 A 
ENDBRANCH   9  10
ENDBRANCH   7   9
ENDBRANCH   1   7
TORSDOF 4
ENDMDL
