MODEL 1
REMARK VINA RESULT:    -5.363      0.000      0.000
REMARK INTER + INTRA:          -6.485
REMARK INTER:                  -7.714
REMARK INTRA:                   1.229
REMARK UNBOUND:                 1.229
REMARK SMILES O=c1c(O[C@@H]2O[C@H](CO)[C@@H](O)[C@H](O)[C@H]2O)c(-c2ccc(O)cc2)oc2cc(O)cc(O)c12
REMARK SMILES IDX 4 1 3 2 1 3 2 4 32 5 16 6 30 7 25 8 24 9 29 10 26 11 27 12
REMARK SMILES IDX 17 13 18 14 23 15 19 16 22 17 20 18 21 19 31 21 28 23 5 25
REMARK SMILES IDX 6 26 14 27 7 28 12 29 10 30 15 31 8 33 9 34 13 36 11 38
REMARK H PARENT 21 20 31 22 28 24 15 32 9 35 13 37 11 39
ROOT
ATOM      1  O   UNL     1      36.621  29.680 -14.533  1.00  0.00    -0.454 OA
ENDROOT
BRANCH   1   2
ATOM      2  C   UNL     1      36.327  30.723 -15.392  1.00  0.00     0.214 A 
ATOM      3  O   UNL     1      38.487  30.602 -16.290  1.00  0.00    -0.285 OA
ATOM      4  C   UNL     1      37.410  31.189 -16.299  1.00  0.00     0.239 A 
ATOM      5  C   UNL     1      37.094  32.341 -17.174  1.00  0.00     0.111 A 
ATOM      6  C   UNL     1      35.139  31.354 -15.413  1.00  0.00     0.180 A 
ATOM      7  C   UNL     1      38.018  32.902 -18.066  1.00  0.00     0.134 A 
ATOM      8  C   UNL     1      35.807  32.880 -17.101  1.00  0.00     0.146 A 
ATOM      9  O   UNL     1      34.833  32.402 -16.263  1.00  0.00    -0.452 OA
ATOM     10  C   UNL     1      37.654  33.986 -18.869  1.00  0.00     0.093 A 
ATOM     11  C   UNL     1      35.439  33.963 -17.903  1.00  0.00     0.094 A 
ATOM     12  C   UNL     1      36.368  34.506 -18.780  1.00  0.00     0.123 A 
BRANCH   6  13
ATOM     13  C   UNL     1      34.006  30.949 -14.557  1.00  0.00     0.021 A 
ATOM     14  C   UNL     1      34.188  30.596 -13.211  1.00  0.00     0.016 A 
ATOM     15  C   UNL     1      32.707  30.922 -15.090  1.00  0.00     0.016 A 
ATOM     16  C   UNL     1      33.103  30.208 -12.419  1.00  0.00     0.047 A 
ATOM     17  C   UNL     1      31.623  30.537 -14.300  1.00  0.00     0.047 A 
ATOM     18  C   UNL     1      31.830  30.180 -12.973  1.00  0.00     0.115 A 
BRANCH  18  19
ATOM     19  O   UNL     1      30.743  29.807 -12.240  1.00  0.00    -0.508 OA
ATOM     20  H   UNL     1      31.045  29.276 -11.485  1.00  0.00     0.293 HD
ENDBRANCH  18  19
ENDBRANCH   6  13
BRANCH   7  21
ATOM     21  O   UNL     1      39.286  32.406 -18.166  1.00  0.00    -0.507 OA
ATOM     22  H   UNL     1      39.571  32.399 -19.095  1.00  0.00     0.293 HD
ENDBRANCH   7  21
BRANCH  12  23
ATOM     23  O   UNL     1      36.058  35.563 -19.583  1.00  0.00    -0.508 OA
ATOM     24  H   UNL     1      35.278  35.342 -20.119  1.00  0.00     0.293 HD
ENDBRANCH  12  23
ENDBRANCH   1   2
BRANCH   1  25
ATOM     25  C   UNL     1      37.707  28.875 -15.027  1.00  0.00     0.339 C 
ATOM     26  O   UNL     1      37.222  28.136 -16.144  1.00  0.00    -0.332 OA
ATOM     27  C   UNL     1      38.117  27.906 -13.891  1.00  0.00     0.214 C 
ATOM     28  C   UNL     1      38.248  27.370 -16.807  1.00  0.00     0.179 C 
ATOM     29  C   UNL     1      38.849  26.661 -14.432  1.00  0.00     0.180 C 
ATOM     30  C   UNL     1      39.364  26.876 -15.862  1.00  0.00     0.177 C 
BRANCH  27  31
ATOM     31  O   UNL     1      38.970  28.544 -12.925  1.00  0.00    -0.384 OA
ATOM     32  H   UNL     1      38.425  28.775 -12.137  1.00  0.00     0.211 HD
ENDBRANCH  27  31
BRANCH  28  33
ATOM     33  C   UNL     1      37.522  26.211 -17.500  1.00  0.00     0.191 C 
BRANCH  33  34
ATOM     34  O   UNL     1      37.340  26.521 -18.886  1.00  0.00    -0.394 OA
ATOM     35  H   UNL     1      36.377  26.647 -19.003  1.00  0.00     0.210 HD
ENDBRANCH  33  34
ENDBRANCH  28  33
BRANCH  29  36
ATOM     36  O   UNL     1      38.001  25.508 -14.401  1.00  0.00    -0.387 OA
ATOM     37  H   UNL     1      37.589  25.482 -13.518  1.00  0.00     0.211 HD
ENDBRANCH  29  36
BRANCH  30  38
ATOM     38  O   UNL     1      40.404  27.870 -15.848  1.00  0.00    -0.387 OA
ATOM     39  H   UNL     1      40.968  27.726 -16.629  1.00  0.00     0.211 HD
ENDBRANCH  30  38
ENDBRANCH   1  25
TORSDOF 11
ENDMDL
MODEL 2
REMARK VINA RESULT:    -5.158      1.819      6.231
REMARK INTER + INTRA:          -6.190
REMARK INTER:                  -7.492
REMARK INTRA:                   1.302
REMARK UNBOUND:                 1.229
REMARK SMILES O=c1c(O[C@@H]2O[C@H](CO)[C@@H](O)[C@H](O)[C@H]2O)c(-c2ccc(O)cc2)oc2cc(O)cc(O)c12
REMARK SMILES IDX 4 1 3 2 1 3 2 4 32 5 16 6 30 7 25 8 24 9 29 10 26 11 27 12
REMARK SMILES IDX 17 13 18 14 23 15 19 16 22 17 20 18 21 19 31 21 28 23 5 25
REMARK SMILES IDX 6 26 14 27 7 28 12 29 10 30 15 31 8 33 9 34 13 36 11 38
REMARK H PARENT 21 20 31 22 28 24 15 32 9 35 13 37 11 39
ROOT
ATOM      1  O   UNL     1      36.275  29.479 -17.285  1.00  0.00    -0.454 OA
ENDROOT
BRANCH   1   2
ATOM      2  C   UNL     1      37.219  28.834 -16.509  1.00  0.00     0.214 A 
ATOM      3  O   UNL     1      38.243  27.993 -18.440  1.00  0.00    -0.285 OA
ATOM      4  C   UNL     1      38.242  28.016 -17.213  1.00  0.00     0.239 A 
ATOM      5  C   UNL     1      39.213  27.290 -16.364  1.00  0.00     0.111 A 
ATOM      6  C   UNL     1      37.227  28.874 -15.164  1.00  0.00     0.180 A 
ATOM      7  C   UNL     1      40.221  26.466 -16.884  1.00  0.00     0.134 A 
ATOM      8  C   UNL     1      39.111  27.447 -14.980  1.00  0.00     0.146 A 
ATOM      9  O   UNL     1      38.163  28.230 -14.375  1.00  0.00    -0.452 OA
ATOM     10  C   UNL     1      41.110  25.812 -16.027  1.00  0.00     0.093 A 
ATOM     11  C   UNL     1      39.999  26.795 -14.119  1.00  0.00     0.094 A 
ATOM     12  C   UNL     1      40.991  25.983 -14.653  1.00  0.00     0.123 A 
BRANCH   6  13
ATOM     13  C   UNL     1      36.258  29.671 -14.385  1.00  0.00     0.021 A 
ATOM     14  C   UNL     1      36.675  30.577 -13.397  1.00  0.00     0.016 A 
ATOM     15  C   UNL     1      34.884  29.535 -14.637  1.00  0.00     0.016 A 
ATOM     16  C   UNL     1      35.742  31.316 -12.664  1.00  0.00     0.047 A 
ATOM     17  C   UNL     1      33.951  30.275 -13.908  1.00  0.00     0.047 A 
ATOM     18  C   UNL     1      34.387  31.156 -12.926  1.00  0.00     0.115 A 
BRANCH  18  19
ATOM     19  O   UNL     1      33.442  31.855 -12.236  1.00  0.00    -0.508 OA
ATOM     20  H   UNL     1      33.033  31.264 -11.582  1.00  0.00     0.293 HD
ENDBRANCH  18  19
ENDBRANCH   6  13
BRANCH   7  21
ATOM     21  O   UNL     1      40.353  26.285 -18.231  1.00  0.00    -0.507 OA
ATOM     22  H   UNL     1      39.910  27.004 -18.711  1.00  0.00     0.293 HD
ENDBRANCH   7  21
BRANCH  12  23
ATOM     23  O   UNL     1      41.880  25.326 -13.855  1.00  0.00    -0.508 OA
ATOM     24  H   UNL     1      41.492  25.206 -12.972  1.00  0.00     0.293 HD
ENDBRANCH  12  23
ENDBRANCH   1   2
BRANCH   1  25
ATOM     25  C   UNL     1      36.031  30.819 -16.821  1.00  0.00     0.339 C 
ATOM     26  O   UNL     1      34.763  31.227 -17.327  1.00  0.00    -0.332 OA
ATOM     27  C   UNL     1      37.146  31.720 -17.405  1.00  0.00     0.214 C 
ATOM     28  C   UNL     1      34.344  32.517 -16.839  1.00  0.00     0.179 C 
ATOM     29  C   UNL     1      36.720  33.202 -17.459  1.00  0.00     0.180 C 
ATOM     30  C   UNL     1      35.513  33.484 -16.554  1.00  0.00     0.177 C 
BRANCH  27  31
ATOM     31  O   UNL     1      38.362  31.630 -16.641  1.00  0.00    -0.384 OA
ATOM     32  H   UNL     1      38.775  30.753 -16.822  1.00  0.00     0.211 HD
ENDBRANCH  27  31
BRANCH  28  33
ATOM     33  C   UNL     1      33.379  33.070 -17.894  1.00  0.00     0.191 C 
BRANCH  33  34
ATOM     34  O   UNL     1      32.439  32.055 -18.262  1.00  0.00    -0.394 OA
ATOM     35  H   UNL     1      31.652  32.210 -17.703  1.00  0.00     0.210 HD
ENDBRANCH  33  34
ENDBRANCH  28  33
BRANCH  29  36
ATOM     36  O   UNL     1      36.417  33.605 -18.798  1.00  0.00    -0.387 OA
ATOM     37  H   UNL     1      37.102  34.244 -19.065  1.00  0.00     0.211 HD
ENDBRANCH  29  36
BRANCH  30  38
ATOM     38  O   UNL     1      35.899  33.319 -15.179  1.00  0.00    -0.387 OA
ATOM     39  H   UNL     1      36.213  32.403 -15.063  1.00  0.00     0.211 HD
ENDBRANCH  30  38
ENDBRANCH   1  25
TORSDOF 11
ENDMDL
MODEL 3
REMARK VINA RESULT:    -3.643      1.045      2.089
REMARK INTER + INTRA:          -4.012
REMARK INTER:                  -6.985
REMARK INTRA:                   2.973
REMARK UNBOUND:                 1.229
REMARK SMILES O=c1c(O[C@@H]2O[C@H](CO)[C@@H](O)[C@H](O)[C@H]2O)c(-c2ccc(O)cc2)oc2cc(O)cc(O)c12
REMARK SMILES IDX 4 1 3 2 1 3 2 4 32 5 16 6 30 7 25 8 24 9 29 10 26 11 27 12
REMARK SMILES IDX 17 13 18 14 23 15 19 16 22 17 20 18 21 19 31 21 28 23 5 25
REMARK SMILES IDX 6 26 14 27 7 28 12 29 10 30 15 31 8 33 9 34 13 36 11 38
REMARK H PARENT 21 20 31 22 28 24 15 32 9 35 13 37 11 39
ROOT
ATOM      1  O   UNL     1      36.712  29.856 -14.828  1.00  0.00    -0.454 OA
ENDROOT
BRANCH   1   2
ATOM      2  C   UNL     1      36.417  30.914 -15.667  1.00  0.00     0.214 A 
ATOM      3  O   UNL     1      38.587  30.832 -16.545  1.00  0.00    -0.285 OA
ATOM      4  C   UNL     1      37.505  31.410 -16.552  1.00  0.00     0.239 A 
ATOM      5  C   UNL     1      37.187  32.577 -17.405  1.00  0.00     0.111 A 
ATOM      6  C   UNL     1      35.224  31.535 -15.686  1.00  0.00     0.180 A 
ATOM      7  C   UNL     1      38.115  33.166 -18.275  1.00  0.00     0.134 A 
ATOM      8  C   UNL     1      35.895  33.103 -17.334  1.00  0.00     0.146 A 
ATOM      9  O   UNL     1      34.917  32.598 -16.517  1.00  0.00    -0.452 OA
ATOM     10  C   UNL     1      37.750  34.264 -19.058  1.00  0.00     0.093 A 
ATOM     11  C   UNL     1      35.525  34.201 -18.117  1.00  0.00     0.094 A 
ATOM     12  C   UNL     1      36.458  34.771 -18.972  1.00  0.00     0.123 A 
BRANCH   6  13
ATOM     13  C   UNL     1      34.086  31.101 -14.852  1.00  0.00     0.021 A 
ATOM     14  C   UNL     1      34.256  30.732 -13.508  1.00  0.00     0.016 A 
ATOM     15  C   UNL     1      32.794  31.064 -15.402  1.00  0.00     0.016 A 
ATOM     16  C   UNL     1      33.167  30.316 -12.736  1.00  0.00     0.047 A 
ATOM     17  C   UNL     1      31.706  30.652 -14.631  1.00  0.00     0.047 A 
ATOM     18  C   UNL     1      31.901  30.279 -13.307  1.00  0.00     0.115 A 
BRANCH  18  19
ATOM     19  O   UNL     1      30.811  29.879 -12.593  1.00  0.00    -0.508 OA
ATOM     20  H   UNL     1      31.001  29.015 -12.192  1.00  0.00     0.293 HD
ENDBRANCH  18  19
ENDBRANCH   6  13
BRANCH   7  21
ATOM     21  O   UNL     1      39.388  32.684 -18.373  1.00  0.00    -0.507 OA
ATOM     22  H   UNL     1      39.605  32.148 -17.592  1.00  0.00     0.293 HD
ENDBRANCH   7  21
BRANCH  12  23
ATOM     23  O   UNL     1      36.146  35.842 -19.754  1.00  0.00    -0.508 OA
ATOM     24  H   UNL     1      36.943  36.381 -19.895  1.00  0.00     0.293 HD
ENDBRANCH  12  23
ENDBRANCH   1   2
BRANCH   1  25
ATOM     25  C   UNL     1      37.011  28.659 -15.568  1.00  0.00     0.339 C 
ATOM     26  O   UNL     1      38.304  28.215 -15.165  1.00  0.00    -0.332 OA
ATOM     27  C   UNL     1      37.027  29.035 -17.069  1.00  0.00     0.214 C 
ATOM     28  C   UNL     1      38.680  26.952 -15.751  1.00  0.00     0.179 C 
ATOM     29  C   UNL     1      37.849  28.034 -17.906  1.00  0.00     0.180 C 
ATOM     30  C   UNL     1      38.082  26.716 -17.155  1.00  0.00     0.177 C 
BRANCH  27  31
ATOM     31  O   UNL     1      35.699  29.096 -17.619  1.00  0.00    -0.384 OA
ATOM     32  H   UNL     1      35.708  29.730 -18.375  1.00  0.00     0.211 HD
ENDBRANCH  27  31
BRANCH  28  33
ATOM     33  C   UNL     1      40.213  26.937 -15.764  1.00  0.00     0.191 C 
BRANCH  33  34
ATOM     34  O   UNL     1      40.676  26.377 -16.997  1.00  0.00    -0.394 OA
ATOM     35  H   UNL     1      40.262  26.915 -17.701  1.00  0.00     0.210 HD
ENDBRANCH  33  34
ENDBRANCH  28  33
BRANCH  29  36
ATOM     36  O   UNL     1      39.110  28.592 -18.290  1.00  0.00    -0.387 OA
ATOM     37  H   UNL     1      39.315  28.247 -19.178  1.00  0.00     0.211 HD
ENDBRANCH  29  36
BRANCH  30  38
ATOM     38  O   UNL     1      36.827  26.033 -16.992  1.00  0.00    -0.387 OA
ATOM     39  H   UNL     1      36.616  26.013 -16.041  1.00  0.00     0.211 HD
ENDBRANCH  30  38
ENDBRANCH   1  25
TORSDOF 11
ENDMDL
MODEL 4
REMARK VINA RESULT:    -2.931      1.736      5.936
REMARK INTER + INTRA:          -2.987
REMARK INTER:                  -3.674
REMARK INTRA:                   0.687
REMARK UNBOUND:                 1.229
REMARK SMILES O=c1c(O[C@@H]2O[C@H](CO)[C@@H](O)[C@H](O)[C@H]2O)c(-c2ccc(O)cc2)oc2cc(O)cc(O)c12
REMARK SMILES IDX 4 1 3 2 1 3 2 4 32 5 16 6 30 7 25 8 24 9 29 10 26 11 27 12
REMARK SMILES IDX 17 13 18 14 23 15 19 16 22 17 20 18 21 19 31 21 28 23 5 25
REMARK SMILES IDX 6 26 14 27 7 28 12 29 10 30 15 31 8 33 9 34 13 36 11 38
REMARK H PARENT 21 20 31 22 28 24 15 32 9 35 13 37 11 39
ROOT
ATOM      1  O   UNL     1      34.936  29.615 -17.140  1.00  0.00    -0.454 OA
ENDROOT
BRANCH   1   2
ATOM      2  C   UNL     1      36.075  29.065 -16.584  1.00  0.00     0.214 A 
ATOM      3  O   UNL     1      36.731  28.277 -18.690  1.00  0.00    -0.285 OA
ATOM      4  C   UNL     1      36.990  28.322 -17.491  1.00  0.00     0.239 A 
ATOM      5  C   UNL     1      38.179  27.694 -16.870  1.00  0.00     0.111 A 
ATOM      6  C   UNL     1      36.367  29.130 -15.273  1.00  0.00     0.180 A 
ATOM      7  C   UNL     1      39.118  26.948 -17.594  1.00  0.00     0.134 A 
ATOM      8  C   UNL     1      38.362  27.868 -15.496  1.00  0.00     0.146 A 
ATOM      9  O   UNL     1      37.501  28.581 -14.702  1.00  0.00    -0.452 OA
ATOM     10  C   UNL     1      40.222  26.386 -16.948  1.00  0.00     0.093 A 
ATOM     11  C   UNL     1      39.465  27.308 -14.845  1.00  0.00     0.094 A 
ATOM     12  C   UNL     1      40.385  26.571 -15.579  1.00  0.00     0.123 A 
BRANCH   6  13
ATOM     13  C   UNL     1      35.523  29.858 -14.303  1.00  0.00     0.021 A 
ATOM     14  C   UNL     1      34.165  29.546 -14.129  1.00  0.00     0.016 A 
ATOM     15  C   UNL     1      36.084  30.882 -13.523  1.00  0.00     0.016 A 
ATOM     16  C   UNL     1      33.380  30.251 -13.212  1.00  0.00     0.047 A 
ATOM     17  C   UNL     1      35.302  31.584 -12.605  1.00  0.00     0.047 A 
ATOM     18  C   UNL     1      33.957  31.266 -12.459  1.00  0.00     0.115 A 
BRANCH  18  19
ATOM     19  O   UNL     1      33.230  31.981 -11.555  1.00  0.00    -0.508 OA
ATOM     20  H   UNL     1      32.408  31.500 -11.367  1.00  0.00     0.293 HD
ENDBRANCH  18  19
ENDBRANCH   6  13
BRANCH   7  21
ATOM     21  O   UNL     1      38.974  26.754 -18.937  1.00  0.00    -0.507 OA
ATOM     22  H   UNL     1      39.023  27.604 -19.406  1.00  0.00     0.293 HD
ENDBRANCH   7  21
BRANCH  12  23
ATOM     23  O   UNL     1      41.476  26.005 -14.991  1.00  0.00    -0.508 OA
ATOM     24  H   UNL     1      42.145  26.691 -14.827  1.00  0.00     0.293 HD
ENDBRANCH  12  23
ENDBRANCH   1   2
BRANCH   1  25
ATOM     25  C   UNL     1      35.129  30.997 -17.490  1.00  0.00     0.339 C 
ATOM     26  O   UNL     1      36.532  31.222 -17.597  1.00  0.00    -0.332 OA
ATOM     27  C   UNL     1      34.545  31.852 -16.338  1.00  0.00     0.214 C 
ATOM     28  C   UNL     1      36.862  32.549 -18.057  1.00  0.00     0.179 C 
ATOM     29  C   UNL     1      35.155  33.268 -16.305  1.00  0.00     0.180 C 
ATOM     30  C   UNL     1      35.843  33.627 -17.629  1.00  0.00     0.177 C 
BRANCH  27  31
ATOM     31  O   UNL     1      33.116  31.981 -16.439  1.00  0.00    -0.384 OA
ATOM     32  H   UNL     1      32.913  32.558 -17.213  1.00  0.00     0.211 HD
ENDBRANCH  27  31
BRANCH  28  33
ATOM     33  C   UNL     1      38.270  32.838 -17.525  1.00  0.00     0.191 C 
BRANCH  33  34
ATOM     34  O   UNL     1      39.088  33.345 -18.584  1.00  0.00    -0.394 OA
ATOM     35  H   UNL     1      38.657  33.051 -19.412  1.00  0.00     0.210 HD
ENDBRANCH  33  34
ENDBRANCH  28  33
BRANCH  29  36
ATOM     36  O   UNL     1      36.091  33.404 -15.230  1.00  0.00    -0.387 OA
ATOM     37  H   UNL     1      36.906  33.780 -15.609  1.00  0.00     0.211 HD
ENDBRANCH  29  36
BRANCH  30  38
ATOM     38  O   UNL     1      34.852  33.736 -18.665  1.00  0.00    -0.387 OA
ATOM     39  H   UNL     1      34.657  34.682 -18.796  1.00  0.00     0.211 HD
ENDBRANCH  30  38
ENDBRANCH   1  25
TORSDOF 11
ENDMDL
MODEL 5
REMARK VINA RESULT:    -2.700      2.153      6.262
REMARK INTER + INTRA:          -2.654
REMARK INTER:                  -1.857
REMARK INTRA:                  -0.797
REMARK UNBOUND:                 1.229
REMARK SMILES O=c1c(O[C@@H]2O[C@H](CO)[C@@H](O)[C@H](O)[C@H]2O)c(-c2ccc(O)cc2)oc2cc(O)cc(O)c12
REMARK SMILES IDX 4 1 3 2 1 3 2 4 32 5 16 6 30 7 25 8 24 9 29 10 26 11 27 12
REMARK SMILES IDX 17 13 18 14 23 15 19 16 22 17 20 18 21 19 31 21 28 23 5 25
REMARK SMILES IDX 6 26 14 27 7 28 12 29 10 30 15 31 8 33 9 34 13 36 11 38
REMARK H PARENT 21 20 31 22 28 24 15 32 9 35 13 37 11 39
ROOT
ATOM      1  O   UNL     1      34.958  30.950 -14.169  1.00  0.00    -0.454 OA
ENDROOT
BRANCH   1   2
ATOM      2  C   UNL     1      35.688  30.270 -15.126  1.00  0.00     0.214 A 
ATOM      3  O   UNL     1      36.837  29.118 -13.441  1.00  0.00    -0.285 OA
ATOM      4  C   UNL     1      36.717  29.309 -14.647  1.00  0.00     0.239 A 
ATOM      5  C   UNL     1      37.525  28.629 -15.684  1.00  0.00     0.111 A 
ATOM      6  C   UNL     1      35.543  30.467 -16.448  1.00  0.00     0.180 A 
ATOM      7  C   UNL     1      38.543  27.713 -15.385  1.00  0.00     0.134 A 
ATOM      8  C   UNL     1      37.244  28.919 -17.022  1.00  0.00     0.146 A 
ATOM      9  O   UNL     1      36.269  29.798 -17.417  1.00  0.00    -0.452 OA
ATOM     10  C   UNL     1      39.266  27.101 -16.412  1.00  0.00     0.093 A 
ATOM     11  C   UNL     1      37.964  28.308 -18.053  1.00  0.00     0.094 A 
ATOM     12  C   UNL     1      38.969  27.404 -17.736  1.00  0.00     0.123 A 
BRANCH   6  13
ATOM     13  C   UNL     1      34.537  31.391 -17.011  1.00  0.00     0.021 A 
ATOM     14  C   UNL     1      34.707  32.784 -16.961  1.00  0.00     0.016 A 
ATOM     15  C   UNL     1      33.384  30.875 -17.623  1.00  0.00     0.016 A 
ATOM     16  C   UNL     1      33.740  33.642 -17.493  1.00  0.00     0.047 A 
ATOM     17  C   UNL     1      32.419  31.731 -18.156  1.00  0.00     0.047 A 
ATOM     18  C   UNL     1      32.603  33.106 -18.084  1.00  0.00     0.115 A 
BRANCH  18  19
ATOM     19  O   UNL     1      31.634  33.905 -18.614  1.00  0.00    -0.508 OA
ATOM     20  H   UNL     1      31.989  34.803 -18.712  1.00  0.00     0.293 HD
ENDBRANCH  18  19
ENDBRANCH   6  13
BRANCH   7  21
ATOM     21  O   UNL     1      38.850  27.404 -14.091  1.00  0.00    -0.507 OA
ATOM     22  H   UNL     1      38.068  27.517 -13.525  1.00  0.00     0.293 HD
ENDBRANCH   7  21
BRANCH  12  23
ATOM     23  O   UNL     1      39.700  26.783 -18.705  1.00  0.00    -0.508 OA
ATOM     24  H   UNL     1      39.412  25.857 -18.781  1.00  0.00     0.293 HD
ENDBRANCH  12  23
ENDBRANCH   1   2
BRANCH   1  25
ATOM     25  C   UNL     1      33.643  30.389 -14.005  1.00  0.00     0.339 C 
ATOM     26  O   UNL     1      32.709  31.314 -14.552  1.00  0.00    -0.332 OA
ATOM     27  C   UNL     1      33.396  30.227 -12.485  1.00  0.00     0.214 C 
ATOM     28  C   UNL     1      31.354  30.820 -14.555  1.00  0.00     0.179 C 
ATOM     29  C   UNL     1      31.892  30.172 -12.148  1.00  0.00     0.180 C 
ATOM     30  C   UNL     1      31.039  29.862 -13.386  1.00  0.00     0.177 C 
BRANCH  27  31
ATOM     31  O   UNL     1      34.016  29.038 -11.966  1.00  0.00    -0.384 OA
ATOM     32  H   UNL     1      34.836  29.302 -11.486  1.00  0.00     0.211 HD
ENDBRANCH  27  31
BRANCH  28  33
ATOM     33  C   UNL     1      30.455  32.062 -14.544  1.00  0.00     0.191 C 
BRANCH  33  34
ATOM     34  O   UNL     1      30.596  32.766 -15.782  1.00  0.00    -0.394 OA
ATOM     35  H   UNL     1      31.479  32.520 -16.125  1.00  0.00     0.210 HD
ENDBRANCH  33  34
ENDBRANCH  28  33
BRANCH  29  36
ATOM     36  O   UNL     1      31.448  31.398 -11.559  1.00  0.00    -0.387 OA
ATOM     37  H   UNL     1      32.013  31.562 -10.783  1.00  0.00     0.211 HD
ENDBRANCH  29  36
BRANCH  30  38
ATOM     38  O   UNL     1      31.311  28.521 -13.828  1.00  0.00    -0.387 OA
ATOM     39  H   UNL     1      31.719  28.037 -13.087  1.00  0.00     0.211 HD
ENDBRANCH  30  38
ENDBRANCH   1  25
TORSDOF 11
ENDMDL
