MODEL 1
REMARK VINA RESULT:    -9.965      0.000      0.000
REMARK INTER + INTRA:         -11.580
REMARK INTER:                 -11.712
REMARK INTRA:                   0.132
REMARK UNBOUND:                 0.132
REMARK SMILES O=c1c([O-])c(-c2ccc(O)c(O)c2)oc2cc(O)cc(O)c12
REMARK SMILES IDX 1 1 2 2 3 3 4 4 5 5 14 6 15 7 16 8 17 9 19 10 20 11 22 12
REMARK SMILES IDX 6 13 7 14 13 15 8 16 11 17 9 18 12 19 10 21 21 23 18 25
REMARK H PARENT 12 20 10 22 21 24 18 26
ROOT
ATOM      1  O   UNL     1      40.099  26.202 -17.365  1.00  0.00    -0.290 OA
ATOM      2  C   UNL     1      39.462  26.925 -16.592  1.00  0.00     0.189 A 
ATOM      3  C   UNL     1      38.238  27.757 -16.973  1.00  0.00    -0.014 A 
ATOM      4  O   UNL     1      37.898  27.688 -18.194  1.00  0.00    -0.867 OA
ATOM      5  C   UNL     1      37.693  28.459 -15.939  1.00  0.00     0.130 A 
ATOM      6  O   UNL     1      38.151  28.482 -14.632  1.00  0.00    -0.456 OA
ATOM      7  C   UNL     1      39.249  27.751 -14.293  1.00  0.00     0.146 A 
ATOM      8  C   UNL     1      39.663  27.820 -12.959  1.00  0.00     0.094 A 
ATOM      9  C   UNL     1      40.778  27.093 -12.549  1.00  0.00     0.123 A 
ATOM     10  C   UNL     1      41.481  26.303 -13.449  1.00  0.00     0.093 A 
ATOM     11  C   UNL     1      41.058  26.242 -14.776  1.00  0.00     0.134 A 
ATOM     12  C   UNL     1      39.935  26.969 -15.202  1.00  0.00     0.106 A 
ENDROOT
BRANCH   5  13
ATOM     13  C   UNL     1      36.488  29.328 -16.091  1.00  0.00     0.021 A 
ATOM     14  C   UNL     1      35.906  29.934 -14.959  1.00  0.00     0.016 A 
ATOM     15  C   UNL     1      35.877  29.522 -17.340  1.00  0.00     0.062 A 
ATOM     16  C   UNL     1      34.752  30.718 -15.069  1.00  0.00     0.051 A 
ATOM     17  C   UNL     1      34.742  30.318 -17.446  1.00  0.00     0.158 A 
ATOM     18  C   UNL     1      34.180  30.903 -16.317  1.00  0.00     0.157 A 
BRANCH  17  19
ATOM     19  O   UNL     1      34.153  30.559 -18.660  1.00  0.00    -0.504 OA
ATOM     20  H   UNL     1      33.431  29.907 -18.736  1.00  0.00     0.293 HD
ENDBRANCH  17  19
BRANCH  18  21
ATOM     21  O   UNL     1      33.058  31.674 -16.439  1.00  0.00    -0.504 OA
ATOM     22  H   UNL     1      32.632  31.591 -15.562  1.00  0.00     0.293 HD
ENDBRANCH  18  21
ENDBRANCH   5  13
BRANCH  11  23
ATOM     23  O   UNL     1      41.789  25.445 -15.620  1.00  0.00    -0.507 OA
ATOM     24  H   UNL     1      41.226  24.651 -15.804  1.00  0.00     0.293 HD
ENDBRANCH  11  23
BRANCH   9  25
ATOM     25  O   UNL     1      41.212  27.134 -11.256  1.00  0.00    -0.508 OA
ATOM     26  H   UNL     1      41.926  26.484 -11.153  1.00  0.00     0.293 HD
ENDBRANCH   9  25
TORSDOF 5
ENDMDL
MODEL 2
REMARK VINA RESULT:    -9.760      0.611      1.458
REMARK INTER + INTRA:         -11.340
REMARK INTER:                 -11.492
REMARK INTRA:                   0.151
REMARK UNBOUND:                 0.132
REMARK SMILES O=c1c([O-])c(-c2ccc(O)c(O)c2)oc2cc(O)cc(O)c12
REMARK SMILES IDX 1 1 2 2 3 3 4 4 5 5 14 6 15 7 16 8 17 9 19 10 20 11 22 12
REMARK SMILES IDX 6 13 7 14 13 15 8 16 11 17 9 18 12 19 10 21 21 23 18 25
REMARK H PARENT 12 20 10 22 21 24 18 26
ROOT
ATOM      1  O   UNL     1      40.047  26.197 -17.443  1.00  0.00    -0.290 OA
ATOM      2  C   UNL     1      39.436  26.911 -16.640  1.00  0.00     0.189 A 
ATOM      3  C   UNL     1      38.194  27.738 -16.966  1.00  0.00    -0.014 A 
ATOM      4  O   UNL     1      37.806  27.675 -18.173  1.00  0.00    -0.867 OA
ATOM      5  C   UNL     1      37.687  28.429 -15.906  1.00  0.00     0.130 A 
ATOM      6  O   UNL     1      38.196  28.446 -14.618  1.00  0.00    -0.456 OA
ATOM      7  C   UNL     1      39.310  27.719 -14.328  1.00  0.00     0.146 A 
ATOM      8  C   UNL     1      39.777  27.781 -13.011  1.00  0.00     0.094 A 
ATOM      9  C   UNL     1      40.912  27.059 -12.651  1.00  0.00     0.123 A 
ATOM     10  C   UNL     1      41.583  26.279 -13.584  1.00  0.00     0.093 A 
ATOM     11  C   UNL     1      41.108  26.225 -14.893  1.00  0.00     0.134 A 
ATOM     12  C   UNL     1      39.965  26.948 -15.270  1.00  0.00     0.106 A 
ENDROOT
BRANCH   5  13
ATOM     13  C   UNL     1      36.472  29.293 -16.004  1.00  0.00     0.021 A 
ATOM     14  C   UNL     1      35.918  29.594 -17.265  1.00  0.00     0.016 A 
ATOM     15  C   UNL     1      35.885  29.865 -14.865  1.00  0.00     0.062 A 
ATOM     16  C   UNL     1      34.806  30.435 -17.387  1.00  0.00     0.051 A 
ATOM     17  C   UNL     1      34.768  30.684 -14.990  1.00  0.00     0.158 A 
ATOM     18  C   UNL     1      34.241  30.974 -16.243  1.00  0.00     0.157 A 
BRANCH  17  19
ATOM     19  O   UNL     1      34.151  31.218 -13.889  1.00  0.00    -0.504 OA
ATOM     20  H   UNL     1      34.036  30.476 -13.266  1.00  0.00     0.293 HD
ENDBRANCH  17  19
BRANCH  18  21
ATOM     21  O   UNL     1      33.149  31.788 -16.348  1.00  0.00    -0.504 OA
ATOM     22  H   UNL     1      33.534  32.687 -16.308  1.00  0.00     0.293 HD
ENDBRANCH  18  21
ENDBRANCH   5  13
BRANCH  11  23
ATOM     23  O   UNL     1      41.809  25.438 -15.772  1.00  0.00    -0.507 OA
ATOM     24  H   UNL     1      41.657  24.503 -15.484  1.00  0.00     0.293 HD
ENDBRANCH  11  23
BRANCH   9  25
ATOM     25  O   UNL     1      41.396  27.094 -11.376  1.00  0.00    -0.508 OA
ATOM     26  H   UNL     1      40.721  26.724 -10.784  1.00  0.00     0.293 HD
ENDBRANCH   9  25
TORSDOF 5
ENDMDL
MODEL 3
REMARK VINA RESULT:    -9.325      1.122      6.692
REMARK INTER + INTRA:         -10.829
REMARK INTER:                 -10.859
REMARK INTRA:                   0.030
REMARK UNBOUND:                 0.132
REMARK SMILES O=c1c([O-])c(-c2ccc(O)c(O)c2)oc2cc(O)cc(O)c12
REMARK SMILES IDX 1 1 2 2 3 3 4 4 5 5 14 6 15 7 16 8 17 9 19 10 20 11 22 12
REMARK SMILES IDX 6 13 7 14 13 15 8 16 11 17 9 18 12 19 10 21 21 23 18 25
REMARK H PARENT 12 20 10 22 21 24 18 26
ROOT
ATOM      1  O   UNL     1      37.278  27.540 -18.253  1.00  0.00    -0.290 OA
ATOM      2  C   UNL     1      37.590  27.886 -17.109  1.00  0.00     0.189 A 
ATOM      3  C   UNL     1      38.733  27.291 -16.290  1.00  0.00    -0.014 A 
ATOM      4  O   UNL     1      39.372  26.353 -16.859  1.00  0.00    -0.867 OA
ATOM      5  C   UNL     1      38.895  27.854 -15.059  1.00  0.00     0.130 A 
ATOM      6  O   UNL     1      38.128  28.872 -14.516  1.00  0.00    -0.456 OA
ATOM      7  C   UNL     1      37.101  29.397 -15.239  1.00  0.00     0.146 A 
ATOM      8  C   UNL     1      36.363  30.419 -14.634  1.00  0.00     0.094 A 
ATOM      9  C   UNL     1      35.300  30.998 -15.323  1.00  0.00     0.123 A 
ATOM     10  C   UNL     1      34.968  30.572 -16.603  1.00  0.00     0.093 A 
ATOM     11  C   UNL     1      35.711  29.553 -17.195  1.00  0.00     0.134 A 
ATOM     12  C   UNL     1      36.784  28.961 -16.512  1.00  0.00     0.106 A 
ENDROOT
BRANCH   5  13
ATOM     13  C   UNL     1      39.958  27.426 -14.101  1.00  0.00     0.021 A 
ATOM     14  C   UNL     1      39.814  27.684 -12.722  1.00  0.00     0.016 A 
ATOM     15  C   UNL     1      41.140  26.812 -14.544  1.00  0.00     0.062 A 
ATOM     16  C   UNL     1      40.814  27.332 -11.810  1.00  0.00     0.051 A 
ATOM     17  C   UNL     1      42.123  26.447 -13.630  1.00  0.00     0.158 A 
ATOM     18  C   UNL     1      41.963  26.715 -12.276  1.00  0.00     0.157 A 
BRANCH  17  19
ATOM     19  O   UNL     1      43.265  25.806 -14.033  1.00  0.00    -0.504 OA
ATOM     20  H   UNL     1      43.271  25.865 -15.007  1.00  0.00     0.293 HD
ENDBRANCH  17  19
BRANCH  18  21
ATOM     21  O   UNL     1      42.944  26.357 -11.393  1.00  0.00    -0.504 OA
ATOM     22  H   UNL     1      43.636  27.033 -11.541  1.00  0.00     0.293 HD
ENDBRANCH  18  21
ENDBRANCH   5  13
BRANCH  11  23
ATOM     23  O   UNL     1      35.338  29.173 -18.460  1.00  0.00    -0.507 OA
ATOM     24  H   UNL     1      35.468  29.969 -19.034  1.00  0.00     0.293 HD
ENDBRANCH  11  23
BRANCH   9  25
ATOM     25  O   UNL     1      34.558  31.998 -14.766  1.00  0.00    -0.508 OA
ATOM     26  H   UNL     1      35.166  32.669 -14.416  1.00  0.00     0.293 HD
ENDBRANCH   9  25
TORSDOF 5
ENDMDL
MODEL 4
REMARK VINA RESULT:    -9.132      1.448      6.525
REMARK INTER + INTRA:         -10.601
REMARK INTER:                 -10.714
REMARK INTRA:                   0.112
REMARK UNBOUND:                 0.132
REMARK SMILES O=c1c([O-])c(-c2ccc(O)c(O)c2)oc2cc(O)cc(O)c12
REMARK SMILES IDX 1 1 2 2 3 3 4 4 5 5 14 6 15 7 16 8 17 9 19 10 20 11 22 12
REMARK SMILES IDX 6 13 7 14 13 15 8 16 11 17 9 18 12 19 10 21 21 23 18 25
REMARK H PARENT 12 20 10 22 21 24 18 26
ROOT
ATOM      1  O   UNL     1      35.258  29.404 -18.295  1.00  0.00    -0.290 OA
ATOM      2  C   UNL     1      35.993  29.201 -17.324  1.00  0.00     0.189 A 
ATOM      3  C   UNL     1      37.189  28.250 -17.309  1.00  0.00    -0.014 A 
ATOM      4  O   UNL     1      37.394  27.624 -18.394  1.00  0.00    -0.867 OA
ATOM      5  C   UNL     1      37.860  28.211 -16.123  1.00  0.00     0.130 A 
ATOM      6  O   UNL     1      37.547  28.927 -14.979  1.00  0.00    -0.456 OA
ATOM      7  C   UNL     1      36.474  29.766 -14.986  1.00  0.00     0.146 A 
ATOM      8  C   UNL     1      36.208  30.456 -13.799  1.00  0.00     0.094 A 
ATOM      9  C   UNL     1      35.126  31.331 -13.742  1.00  0.00     0.123 A 
ATOM     10  C   UNL     1      34.310  31.523 -14.850  1.00  0.00     0.093 A 
ATOM     11  C   UNL     1      34.586  30.830 -16.027  1.00  0.00     0.134 A 
ATOM     12  C   UNL     1      35.673  29.945 -16.098  1.00  0.00     0.106 A 
ENDROOT
BRANCH   5  13
ATOM     13  C   UNL     1      39.063  27.355 -15.896  1.00  0.00     0.021 A 
ATOM     14  C   UNL     1      39.623  27.249 -14.606  1.00  0.00     0.016 A 
ATOM     15  C   UNL     1      39.696  26.685 -16.955  1.00  0.00     0.062 A 
ATOM     16  C   UNL     1      40.774  26.488 -14.376  1.00  0.00     0.051 A 
ATOM     17  C   UNL     1      40.829  25.914 -16.716  1.00  0.00     0.158 A 
ATOM     18  C   UNL     1      41.368  25.826 -15.438  1.00  0.00     0.157 A 
BRANCH  17  19
ATOM     19  O   UNL     1      41.438  25.214 -17.725  1.00  0.00    -0.504 OA
ATOM     20  H   UNL     1      42.008  25.858 -18.186  1.00  0.00     0.293 HD
ENDBRANCH  17  19
BRANCH  18  21
ATOM     21  O   UNL     1      42.488  25.073 -15.224  1.00  0.00    -0.504 OA
ATOM     22  H   UNL     1      42.137  24.265 -14.797  1.00  0.00     0.293 HD
ENDBRANCH  18  21
ENDBRANCH   5  13
BRANCH  11  23
ATOM     23  O   UNL     1      33.747  31.059 -17.089  1.00  0.00    -0.507 OA
ATOM     24  H   UNL     1      33.279  31.908 -16.889  1.00  0.00     0.293 HD
ENDBRANCH  11  23
BRANCH   9  25
ATOM     25  O   UNL     1      34.836  32.023 -12.603  1.00  0.00    -0.508 OA
ATOM     26  H   UNL     1      35.170  31.515 -11.845  1.00  0.00     0.293 HD
ENDBRANCH   9  25
TORSDOF 5
ENDMDL
MODEL 5
REMARK VINA RESULT:    -8.731      2.228      7.497
REMARK INTER + INTRA:         -10.131
REMARK INTER:                  -9.800
REMARK INTRA:                  -0.331
REMARK UNBOUND:                 0.132
REMARK SMILES O=c1c([O-])c(-c2ccc(O)c(O)c2)oc2cc(O)cc(O)c12
REMARK SMILES IDX 1 1 2 2 3 3 4 4 5 5 14 6 15 7 16 8 17 9 19 10 20 11 22 12
REMARK SMILES IDX 6 13 7 14 13 15 8 16 11 17 9 18 12 19 10 21 21 23 18 25
REMARK H PARENT 12 20 10 22 21 24 18 26
ROOT
ATOM      1  O   UNL     1      36.066  33.719 -17.837  1.00  0.00    -0.290 OA
ATOM      2  C   UNL     1      35.863  32.629 -17.292  1.00  0.00     0.189 A 
ATOM      3  C   UNL     1      36.941  31.604 -16.945  1.00  0.00    -0.014 A 
ATOM      4  O   UNL     1      38.122  31.929 -17.281  1.00  0.00    -0.867 OA
ATOM      5  C   UNL     1      36.472  30.483 -16.327  1.00  0.00     0.130 A 
ATOM      6  O   UNL     1      35.150  30.211 -16.014  1.00  0.00    -0.456 OA
ATOM      7  C   UNL     1      34.185  31.118 -16.333  1.00  0.00     0.146 A 
ATOM      8  C   UNL     1      32.871  30.783 -15.995  1.00  0.00     0.094 A 
ATOM      9  C   UNL     1      31.839  31.669 -16.294  1.00  0.00     0.123 A 
ATOM     10  C   UNL     1      32.102  32.880 -16.922  1.00  0.00     0.093 A 
ATOM     11  C   UNL     1      33.417  33.202 -17.253  1.00  0.00     0.134 A 
ATOM     12  C   UNL     1      34.466  32.318 -16.958  1.00  0.00     0.106 A 
ENDROOT
BRANCH   5  13
ATOM     13  C   UNL     1      37.358  29.360 -15.895  1.00  0.00     0.021 A 
ATOM     14  C   UNL     1      38.005  29.412 -14.643  1.00  0.00     0.016 A 
ATOM     15  C   UNL     1      37.612  28.263 -16.731  1.00  0.00     0.062 A 
ATOM     16  C   UNL     1      38.873  28.395 -14.232  1.00  0.00     0.051 A 
ATOM     17  C   UNL     1      38.460  27.244 -16.310  1.00  0.00     0.158 A 
ATOM     18  C   UNL     1      39.093  27.317 -15.074  1.00  0.00     0.157 A 
BRANCH  17  19
ATOM     19  O   UNL     1      38.688  26.141 -17.090  1.00  0.00    -0.504 OA
ATOM     20  H   UNL     1      37.847  25.968 -17.554  1.00  0.00     0.293 HD
ENDBRANCH  17  19
BRANCH  18  21
ATOM     21  O   UNL     1      39.931  26.312 -14.681  1.00  0.00    -0.504 OA
ATOM     22  H   UNL     1      40.817  26.652 -14.919  1.00  0.00     0.293 HD
ENDBRANCH  18  21
ENDBRANCH   5  13
BRANCH  11  23
ATOM     23  O   UNL     1      33.618  34.411 -17.872  1.00  0.00    -0.507 OA
ATOM     24  H   UNL     1      32.759  34.642 -18.305  1.00  0.00     0.293 HD
ENDBRANCH  11  23
BRANCH   9  25
ATOM     25  O   UNL     1      30.544  31.378 -15.978  1.00  0.00    -0.508 OA
ATOM     26  H   UNL     1      30.534  30.931 -15.115  1.00  0.00     0.293 HD
ENDBRANCH   9  25
TORSDOF 5
ENDMDL
MODEL 6
REMARK VINA RESULT:    -8.690      2.249      4.559
REMARK INTER + INTRA:         -10.082
REMARK INTER:                  -9.751
REMARK INTRA:                  -0.331
REMARK UNBOUND:                 0.132
REMARK SMILES O=c1c([O-])c(-c2ccc(O)c(O)c2)oc2cc(O)cc(O)c12
REMARK SMILES IDX 1 1 2 2 3 3 4 4 5 5 14 6 15 7 16 8 17 9 19 10 20 11 22 12
REMARK SMILES IDX 6 13 7 14 13 15 8 16 11 17 9 18 12 19 10 21 21 23 18 25
REMARK H PARENT 12 20 10 22 21 24 18 26
ROOT
ATOM      1  O   UNL     1      37.205  29.931 -13.413  1.00  0.00    -0.290 OA
ATOM      2  C   UNL     1      36.689  29.990 -14.534  1.00  0.00     0.189 A 
ATOM      3  C   UNL     1      35.559  30.938 -14.934  1.00  0.00    -0.014 A 
ATOM      4  O   UNL     1      35.133  31.690 -14.005  1.00  0.00    -0.867 OA
ATOM      5  C   UNL     1      35.170  30.829 -16.236  1.00  0.00     0.130 A 
ATOM      6  O   UNL     1      35.691  29.957 -17.178  1.00  0.00    -0.456 OA
ATOM      7  C   UNL     1      36.690  29.103 -16.821  1.00  0.00     0.146 A 
ATOM      8  C   UNL     1      37.170  28.245 -17.815  1.00  0.00     0.094 A 
ATOM      9  C   UNL     1      38.192  27.349 -17.513  1.00  0.00     0.123 A 
ATOM     10  C   UNL     1      38.739  27.300 -16.237  1.00  0.00     0.093 A 
ATOM     11  C   UNL     1      38.252  28.160 -15.255  1.00  0.00     0.134 A 
ATOM     12  C   UNL     1      37.222  29.068 -15.545  1.00  0.00     0.106 A 
ENDROOT
BRANCH   5  13
ATOM     13  C   UNL     1      34.089  31.668 -16.835  1.00  0.00     0.021 A 
ATOM     14  C   UNL     1      34.392  32.938 -17.368  1.00  0.00     0.016 A 
ATOM     15  C   UNL     1      32.750  31.247 -16.837  1.00  0.00     0.062 A 
ATOM     16  C   UNL     1      33.391  33.760 -17.896  1.00  0.00     0.051 A 
ATOM     17  C   UNL     1      31.762  32.061 -17.381  1.00  0.00     0.158 A 
ATOM     18  C   UNL     1      32.081  33.311 -17.897  1.00  0.00     0.157 A 
BRANCH  17  19
ATOM     19  O   UNL     1      30.455  31.652 -17.434  1.00  0.00    -0.504 OA
ATOM     20  H   UNL     1      30.416  30.988 -18.148  1.00  0.00     0.293 HD
ENDBRANCH  17  19
BRANCH  18  21
ATOM     21  O   UNL     1      31.095  34.101 -18.418  1.00  0.00    -0.504 OA
ATOM     22  H   UNL     1      30.440  34.151 -17.693  1.00  0.00     0.293 HD
ENDBRANCH  18  21
ENDBRANCH   5  13
BRANCH  11  23
ATOM     23  O   UNL     1      38.830  28.067 -14.013  1.00  0.00    -0.507 OA
ATOM     24  H   UNL     1      39.478  28.813 -13.957  1.00  0.00     0.293 HD
ENDBRANCH  11  23
BRANCH   9  25
ATOM     25  O   UNL     1      38.687  26.498 -18.458  1.00  0.00    -0.508 OA
ATOM     26  H   UNL     1      39.583  26.234 -18.190  1.00  0.00     0.293 HD
ENDBRANCH   9  25
TORSDOF 5
ENDMDL
MODEL 7
REMARK VINA RESULT:    -8.457      1.446      2.409
REMARK INTER + INTRA:          -9.808
REMARK INTER:                  -9.567
REMARK INTRA:                  -0.242
REMARK UNBOUND:                 0.132
REMARK SMILES O=c1c([O-])c(-c2ccc(O)c(O)c2)oc2cc(O)cc(O)c12
REMARK SMILES IDX 1 1 2 2 3 3 4 4 5 5 14 6 15 7 16 8 17 9 19 10 20 11 22 12
REMARK SMILES IDX 6 13 7 14 13 15 8 16 11 17 9 18 12 19 10 21 21 23 18 25
REMARK H PARENT 12 20 10 22 21 24 18 26
ROOT
ATOM      1  O   UNL     1      38.097  26.859 -18.004  1.00  0.00    -0.290 OA
ATOM      2  C   UNL     1      37.630  27.737 -17.272  1.00  0.00     0.189 A 
ATOM      3  C   UNL     1      36.459  28.651 -17.631  1.00  0.00    -0.014 A 
ATOM      4  O   UNL     1      35.973  28.474 -18.790  1.00  0.00    -0.867 OA
ATOM      5  C   UNL     1      36.113  29.531 -16.649  1.00  0.00     0.130 A 
ATOM      6  O   UNL     1      36.721  29.660 -15.411  1.00  0.00    -0.456 OA
ATOM      7  C   UNL     1      37.772  28.855 -15.093  1.00  0.00     0.146 A 
ATOM      8  C   UNL     1      38.345  29.037 -13.831  1.00  0.00     0.094 A 
ATOM      9  C   UNL     1      39.422  28.243 -13.445  1.00  0.00     0.123 A 
ATOM     10  C   UNL     1      39.932  27.274 -14.301  1.00  0.00     0.093 A 
ATOM     11  C   UNL     1      39.352  27.102 -15.556  1.00  0.00     0.134 A 
ATOM     12  C   UNL     1      38.265  27.895 -15.957  1.00  0.00     0.106 A 
ENDROOT
BRANCH   5  13
ATOM     13  C   UNL     1      34.991  30.508 -16.789  1.00  0.00     0.021 A 
ATOM     14  C   UNL     1      35.023  31.480 -17.811  1.00  0.00     0.016 A 
ATOM     15  C   UNL     1      33.914  30.522 -15.890  1.00  0.00     0.062 A 
ATOM     16  C   UNL     1      34.007  32.432 -17.938  1.00  0.00     0.051 A 
ATOM     17  C   UNL     1      32.896  31.459 -16.033  1.00  0.00     0.158 A 
ATOM     18  C   UNL     1      32.949  32.412 -17.043  1.00  0.00     0.157 A 
BRANCH  17  19
ATOM     19  O   UNL     1      31.812  31.464 -15.195  1.00  0.00    -0.504 OA
ATOM     20  H   UNL     1      32.146  31.779 -14.334  1.00  0.00     0.293 HD
ENDBRANCH  17  19
BRANCH  18  21
ATOM     21  O   UNL     1      31.945  33.331 -17.162  1.00  0.00    -0.504 OA
ATOM     22  H   UNL     1      32.415  34.187 -17.092  1.00  0.00     0.293 HD
ENDBRANCH  18  21
ENDBRANCH   5  13
BRANCH  11  23
ATOM     23  O   UNL     1      39.896  26.130 -16.358  1.00  0.00    -0.507 OA
ATOM     24  H   UNL     1      40.362  25.504 -15.750  1.00  0.00     0.293 HD
ENDBRANCH  11  23
BRANCH   9  25
ATOM     25  O   UNL     1      40.007  28.391 -12.221  1.00  0.00    -0.508 OA
ATOM     26  H   UNL     1      39.304  28.441 -11.553  1.00  0.00     0.293 HD
ENDBRANCH   9  25
TORSDOF 5
ENDMDL
MODEL 8
REMARK VINA RESULT:    -8.452      1.406      3.273
REMARK INTER + INTRA:          -9.802
REMARK INTER:                  -9.897
REMARK INTRA:                   0.095
REMARK UNBOUND:                 0.132
REMARK SMILES O=c1c([O-])c(-c2ccc(O)c(O)c2)oc2cc(O)cc(O)c12
REMARK SMILES IDX 1 1 2 2 3 3 4 4 5 5 14 6 15 7 16 8 17 9 19 10 20 11 22 12
REMARK SMILES IDX 6 13 7 14 13 15 8 16 11 17 9 18 12 19 10 21 21 23 18 25
REMARK H PARENT 12 20 10 22 21 24 18 26
ROOT
ATOM      1  O   UNL     1      39.055  28.739 -12.843  1.00  0.00    -0.290 OA
ATOM      2  C   UNL     1      38.521  28.667 -13.955  1.00  0.00     0.189 A 
ATOM      3  C   UNL     1      37.267  29.427 -14.381  1.00  0.00    -0.014 A 
ATOM      4  O   UNL     1      36.753  30.164 -13.484  1.00  0.00    -0.867 OA
ATOM      5  C   UNL     1      36.881  29.197 -15.668  1.00  0.00     0.130 A 
ATOM      6  O   UNL     1      37.506  28.355 -16.574  1.00  0.00    -0.456 OA
ATOM      7  C   UNL     1      38.617  27.666 -16.193  1.00  0.00     0.146 A 
ATOM      8  C   UNL     1      39.198  26.830 -17.151  1.00  0.00     0.094 A 
ATOM      9  C   UNL     1      40.338  26.100 -16.824  1.00  0.00     0.123 A 
ATOM     10  C   UNL     1      40.902  26.195 -15.558  1.00  0.00     0.093 A 
ATOM     11  C   UNL     1      40.313  27.032 -14.612  1.00  0.00     0.134 A 
ATOM     12  C   UNL     1      39.165  27.773 -14.928  1.00  0.00     0.106 A 
ENDROOT
BRANCH   5  13
ATOM     13  C   UNL     1      35.687  29.846 -16.289  1.00  0.00     0.021 A 
ATOM     14  C   UNL     1      35.542  29.867 -17.691  1.00  0.00     0.016 A 
ATOM     15  C   UNL     1      34.716  30.493 -15.509  1.00  0.00     0.062 A 
ATOM     16  C   UNL     1      34.455  30.505 -18.298  1.00  0.00     0.051 A 
ATOM     17  C   UNL     1      33.628  31.109 -16.117  1.00  0.00     0.158 A 
ATOM     18  C   UNL     1      33.505  31.123 -17.501  1.00  0.00     0.157 A 
BRANCH  17  19
ATOM     19  O   UNL     1      32.643  31.708 -15.374  1.00  0.00    -0.504 OA
ATOM     20  H   UNL     1      33.097  32.103 -14.606  1.00  0.00     0.293 HD
ENDBRANCH  17  19
BRANCH  18  21
ATOM     21  O   UNL     1      32.435  31.742 -18.082  1.00  0.00    -0.504 OA
ATOM     22  H   UNL     1      32.265  31.198 -18.878  1.00  0.00     0.293 HD
ENDBRANCH  18  21
ENDBRANCH   5  13
BRANCH  11  23
ATOM     23  O   UNL     1      40.913  27.086 -13.379  1.00  0.00    -0.507 OA
ATOM     24  H   UNL     1      41.708  27.666 -13.486  1.00  0.00     0.293 HD
ENDBRANCH  11  23
BRANCH   9  25
ATOM     25  O   UNL     1      40.934  25.275 -17.733  1.00  0.00    -0.508 OA
ATOM     26  H   UNL     1      40.613  24.371 -17.579  1.00  0.00     0.293 HD
ENDBRANCH   9  25
TORSDOF 5
ENDMDL
MODEL 9
REMARK VINA RESULT:    -8.042      1.873      3.667
REMARK INTER + INTRA:          -9.320
REMARK INTER:                  -8.993
REMARK INTRA:                  -0.327
REMARK UNBOUND:                 0.132
REMARK SMILES O=c1c([O-])c(-c2ccc(O)c(O)c2)oc2cc(O)cc(O)c12
REMARK SMILES IDX 1 1 2 2 3 3 4 4 5 5 14 6 15 7 16 8 17 9 19 10 20 11 22 12
REMARK SMILES IDX 6 13 7 14 13 15 8 16 11 17 9 18 12 19 10 21 21 23 18 25
REMARK H PARENT 12 20 10 22 21 24 18 26
ROOT
ATOM      1  O   UNL     1      38.201  29.085 -12.965  1.00  0.00    -0.290 OA
ATOM      2  C   UNL     1      37.758  29.215 -14.110  1.00  0.00     0.189 A 
ATOM      3  C   UNL     1      36.675  30.209 -14.527  1.00  0.00    -0.014 A 
ATOM      4  O   UNL     1      36.206  30.921 -13.587  1.00  0.00    -0.867 OA
ATOM      5  C   UNL     1      36.367  30.179 -15.855  1.00  0.00     0.130 A 
ATOM      6  O   UNL     1      36.929  29.345 -16.809  1.00  0.00    -0.456 OA
ATOM      7  C   UNL     1      37.886  28.451 -16.438  1.00  0.00     0.146 A 
ATOM      8  C   UNL     1      38.410  27.636 -17.446  1.00  0.00     0.094 A 
ATOM      9  C   UNL     1      39.393  26.701 -17.130  1.00  0.00     0.123 A 
ATOM     10  C   UNL     1      39.857  26.571 -15.827  1.00  0.00     0.093 A 
ATOM     11  C   UNL     1      39.327  27.389 -14.832  1.00  0.00     0.134 A 
ATOM     12  C   UNL     1      38.336  28.336 -15.136  1.00  0.00     0.106 A 
ENDROOT
BRANCH   5  13
ATOM     13  C   UNL     1      35.343  31.073 -16.473  1.00  0.00     0.021 A 
ATOM     14  C   UNL     1      33.974  30.748 -16.385  1.00  0.00     0.016 A 
ATOM     15  C   UNL     1      35.710  32.218 -17.197  1.00  0.00     0.062 A 
ATOM     16  C   UNL     1      32.998  31.545 -16.991  1.00  0.00     0.051 A 
ATOM     17  C   UNL     1      34.735  33.018 -17.782  1.00  0.00     0.158 A 
ATOM     18  C   UNL     1      33.390  32.677 -17.687  1.00  0.00     0.157 A 
BRANCH  17  19
ATOM     19  O   UNL     1      35.065  34.165 -18.455  1.00  0.00    -0.504 OA
ATOM     20  H   UNL     1      35.012  34.882 -17.795  1.00  0.00     0.293 HD
ENDBRANCH  17  19
BRANCH  18  21
ATOM     21  O   UNL     1      32.446  33.470 -18.276  1.00  0.00    -0.504 OA
ATOM     22  H   UNL     1      32.624  33.359 -19.232  1.00  0.00     0.293 HD
ENDBRANCH  18  21
ENDBRANCH   5  13
BRANCH  11  23
ATOM     23  O   UNL     1      39.823  27.218 -13.564  1.00  0.00    -0.507 OA
ATOM     24  H   UNL     1      39.042  27.262 -12.956  1.00  0.00     0.293 HD
ENDBRANCH  11  23
BRANCH   9  25
ATOM     25  O   UNL     1      39.929  25.889 -18.087  1.00  0.00    -0.508 OA
ATOM     26  H   UNL     1      39.338  25.128 -18.206  1.00  0.00     0.293 HD
ENDBRANCH   9  25
TORSDOF 5
ENDMDL
