MODEL 1
REMARK VINA RESULT:     2.623      0.000      0.000
REMARK INTER + INTRA:           3.147
REMARK INTER:                   4.924
REMARK INTRA:                  -1.777
REMARK UNBOUND:                -1.777
REMARK SMILES C[C@@H]1O[C@@H](OC[C@H]2O[C@@H](Oc3ccc(-c4oc5cc(O)cc(O)c5c(=O)c4O)cc3)[C@H](O)[C@@H](O)[C@@H]2O)[C@H](O[C@@H]2O[C@H](CO)[C@@H](O)[C@H](O)[C@H]2O)[C@H](O)[C@H]1O
REMARK SMILES IDX 5 1 4 2 2 3 3 4 52 5 50 6 37 7 1 8 53 9 51 11 38 13 39 14
REMARK SMILES IDX 40 15 48 16 41 17 46 18 44 19 49 20 42 22 43 23 47 25 45 27
REMARK SMILES IDX 6 29 7 30 8 31 35 32 9 33 33 34 31 35 36 36 10 38 11 39
REMARK SMILES IDX 12 40 30 41 13 42 29 43 14 44 15 45 16 46 27 47 17 48 25 49
REMARK SMILES IDX 18 50 24 51 26 52 19 53 22 54 21 55 28 56 20 58 23 60 34 62
REMARK SMILES IDX 32 64
REMARK H PARENT 53 10 51 12 49 21 43 24 47 26 45 28 36 37 28 57 20 59 23 61
REMARK H PARENT 34 63 32 65
ROOT
ATOM      1  O   UNL     1      34.700  30.681 -12.395  1.00  0.00    -0.347 OA
ENDROOT
BRANCH   1   2
ATOM      2  C   UNL     1      33.308  31.018 -12.409  1.00  0.00     0.282 C 
ATOM      3  C   UNL     1      32.198  28.990 -11.863  1.00  0.00     0.150 C 
ATOM      4  O   UNL     1      32.642  30.260 -11.392  1.00  0.00    -0.344 OA
ATOM      5  C   UNL     1      31.023  29.188 -12.836  1.00  0.00     0.174 C 
ATOM      6  C   UNL     1      31.282  30.354 -13.808  1.00  0.00     0.180 C 
ATOM      7  C   UNL     1      32.759  30.768 -13.841  1.00  0.00     0.209 C 
ATOM      8  C   UNL     1      31.782  28.156 -10.656  1.00  0.00     0.041 C 
BRANCH   5   9
ATOM      9  O   UNL     1      30.813  27.977 -13.573  1.00  0.00    -0.388 OA
ATOM     10  H   UNL     1      30.022  28.118 -14.125  1.00  0.00     0.211 HD
ENDBRANCH   5   9
BRANCH   6  11
ATOM     11  O   UNL     1      30.456  31.475 -13.453  1.00  0.00    -0.387 OA
ATOM     12  H   UNL     1      30.244  31.355 -12.502  1.00  0.00     0.211 HD
ENDBRANCH   6  11
BRANCH   7  13
ATOM     13  O   UNL     1      32.840  31.974 -14.634  1.00  0.00    -0.338 OA
BRANCH  13  14
ATOM     14  C   UNL     1      32.299  31.825 -15.950  1.00  0.00     0.282 C 
ATOM     15  O   UNL     1      33.328  31.592 -16.905  1.00  0.00    -0.341 OA
ATOM     16  C   UNL     1      31.557  33.135 -16.281  1.00  0.00     0.202 C 
ATOM     17  C   UNL     1      32.810  31.420 -18.231  1.00  0.00     0.178 C 
ATOM     18  C   UNL     1      31.017  33.080 -17.708  1.00  0.00     0.179 C 
ATOM     19  C   UNL     1      32.128  32.718 -18.695  1.00  0.00     0.177 C 
BRANCH  16  20
ATOM     20  O   UNL     1      30.460  33.374 -15.386  1.00  0.00    -0.385 OA
ATOM     21  H   UNL     1      29.657  33.368 -15.950  1.00  0.00     0.211 HD
ENDBRANCH  16  20
BRANCH  17  22
ATOM     22  C   UNL     1      33.947  31.021 -19.181  1.00  0.00     0.191 C 
BRANCH  22  23
ATOM     23  O   UNL     1      34.037  29.606 -19.330  1.00  0.00    -0.394 OA
ATOM     24  H   UNL     1      33.154  29.243 -19.102  1.00  0.00     0.210 HD
ENDBRANCH  22  23
ENDBRANCH  17  22
BRANCH  18  25
ATOM     25  O   UNL     1      30.455  34.351 -18.078  1.00  0.00    -0.387 OA
ATOM     26  H   UNL     1      30.521  34.899 -17.269  1.00  0.00     0.211 HD
ENDBRANCH  18  25
BRANCH  19  27
ATOM     27  O   UNL     1      31.573  32.578 -20.008  1.00  0.00    -0.387 OA
ATOM     28  H   UNL     1      32.101  31.866 -20.428  1.00  0.00     0.211 HD
ENDBRANCH  19  27
ENDBRANCH  13  14
ENDBRANCH   7  13
ENDBRANCH   1   2
BRANCH   1  29
ATOM     29  C   UNL     1      35.549  31.758 -12.813  1.00  0.00     0.198 C 
BRANCH  29  30
ATOM     30  C   UNL     1      36.415  31.332 -14.010  1.00  0.00     0.180 C 
ATOM     31  O   UNL     1      36.795  29.961 -13.865  1.00  0.00    -0.332 OA
ATOM     32  C   UNL     1      35.642  31.457 -15.332  1.00  0.00     0.177 C 
ATOM     33  C   UNL     1      37.877  29.595 -14.733  1.00  0.00     0.339 C 
ATOM     34  C   UNL     1      36.334  30.654 -16.460  1.00  0.00     0.180 C 
ATOM     35  C   UNL     1      37.789  30.281 -16.124  1.00  0.00     0.214 C 
BRANCH  32  36
ATOM     36  O   UNL     1      35.523  32.834 -15.697  1.00  0.00    -0.387 OA
ATOM     37  H   UNL     1      36.205  33.014 -16.369  1.00  0.00     0.211 HD
ENDBRANCH  32  36
BRANCH  33  38
ATOM     38  O   UNL     1      37.838  28.170 -14.957  1.00  0.00    -0.462 OA
BRANCH  38  39
ATOM     39  C   UNL     1      39.089  27.632 -14.824  1.00  0.00     0.123 A 
ATOM     40  C   UNL     1      39.563  26.724 -15.768  1.00  0.00     0.047 A 
ATOM     41  C   UNL     1      39.893  28.039 -13.763  1.00  0.00     0.047 A 
ATOM     42  C   UNL     1      40.832  26.167 -15.612  1.00  0.00     0.016 A 
ATOM     43  C   UNL     1      41.164  27.480 -13.609  1.00  0.00     0.016 A 
ATOM     44  C   UNL     1      41.636  26.522 -14.520  1.00  0.00     0.021 A 
BRANCH  44  45
ATOM     45  C   UNL     1      42.966  25.921 -14.336  1.00  0.00     0.180 A 
ATOM     46  O   UNL     1      44.000  26.842 -14.417  1.00  0.00    -0.452 OA
ATOM     47  C   UNL     1      43.134  24.608 -14.099  1.00  0.00     0.208 A 
ATOM     48  C   UNL     1      45.291  26.396 -14.276  1.00  0.00     0.146 A 
ATOM     49  C   UNL     1      44.512  24.093 -13.941  1.00  0.00     0.238 A 
ATOM     50  C   UNL     1      46.303  27.351 -14.378  1.00  0.00     0.094 A 
ATOM     51  C   UNL     1      45.609  25.059 -14.040  1.00  0.00     0.111 A 
ATOM     52  O   UNL     1      44.707  22.898 -13.735  1.00  0.00    -0.285 OA
ATOM     53  C   UNL     1      47.630  26.952 -14.241  1.00  0.00     0.123 A 
ATOM     54  C   UNL     1      46.945  24.671 -13.904  1.00  0.00     0.134 A 
ATOM     55  C   UNL     1      47.958  25.619 -14.004  1.00  0.00     0.093 A 
BRANCH  47  56
ATOM     56  O   UNL     1      42.096  23.697 -13.977  1.00  0.00    -0.502 OA
ATOM     57  H   UNL     1      41.679  23.917 -13.112  1.00  0.00     0.293 HD
ENDBRANCH  47  56
BRANCH  53  58
ATOM     58  O   UNL     1      48.653  27.848 -14.334  1.00  0.00    -0.508 OA
ATOM     59  H   UNL     1      48.689  28.206 -15.236  1.00  0.00     0.293 HD
ENDBRANCH  53  58
BRANCH  54  60
ATOM     60  O   UNL     1      47.326  23.377 -13.671  1.00  0.00    -0.507 OA
ATOM     61  H   UNL     1      47.945  23.098 -14.380  1.00  0.00     0.293 HD
ENDBRANCH  54  60
ENDBRANCH  44  45
ENDBRANCH  38  39
ENDBRANCH  33  38
BRANCH  34  62
ATOM     62  O   UNL     1      35.571  29.476 -16.757  1.00  0.00    -0.387 OA
ATOM     63  H   UNL     1      36.008  28.713 -16.328  1.00  0.00     0.211 HD
ENDBRANCH  34  62
BRANCH  35  64
ATOM     64  O   UNL     1      38.616  31.457 -16.133  1.00  0.00    -0.384 OA
ATOM     65  H   UNL     1      38.030  32.235 -16.158  1.00  0.00     0.211 HD
ENDBRANCH  35  64
ENDBRANCH  29  30
ENDBRANCH   1  29
TORSDOF 21
ENDMDL
MODEL 2
REMARK VINA RESULT:     3.801      1.826      4.728
REMARK INTER + INTRA:           5.357
REMARK INTER:                   6.102
REMARK INTRA:                  -0.744
REMARK UNBOUND:                -1.777
REMARK SMILES C[C@@H]1O[C@@H](OC[C@H]2O[C@@H](Oc3ccc(-c4oc5cc(O)cc(O)c5c(=O)c4O)cc3)[C@H](O)[C@@H](O)[C@@H]2O)[C@H](O[C@@H]2O[C@H](CO)[C@@H](O)[C@H](O)[C@H]2O)[C@H](O)[C@H]1O
REMARK SMILES IDX 5 1 4 2 2 3 3 4 52 5 50 6 37 7 1 8 53 9 51 11 38 13 39 14
REMARK SMILES IDX 40 15 48 16 41 17 46 18 44 19 49 20 42 22 43 23 47 25 45 27
REMARK SMILES IDX 6 29 7 30 8 31 35 32 9 33 33 34 31 35 36 36 10 38 11 39
REMARK SMILES IDX 12 40 30 41 13 42 29 43 14 44 15 45 16 46 27 47 17 48 25 49
REMARK SMILES IDX 18 50 24 51 26 52 19 53 22 54 21 55 28 56 20 58 23 60 34 62
REMARK SMILES IDX 32 64
REMARK H PARENT 53 10 51 12 49 21 43 24 47 26 45 28 36 37 28 57 20 59 23 61
REMARK H PARENT 34 63 32 65
ROOT
ATOM      1  O   UNL     1      36.143  30.945 -15.602  1.00  0.00    -0.347 OA
ENDROOT
BRANCH   1   2
ATOM      2  C   UNL     1      35.524  31.233 -16.861  1.00  0.00     0.282 C 
ATOM      3  C   UNL     1      36.802  33.022 -17.760  1.00  0.00     0.150 C 
ATOM      4  O   UNL     1      36.539  31.621 -17.795  1.00  0.00    -0.344 OA
ATOM      5  C   UNL     1      35.608  33.781 -18.362  1.00  0.00     0.174 C 
ATOM      6  C   UNL     1      34.266  33.208 -17.870  1.00  0.00     0.180 C 
ATOM      7  C   UNL     1      34.432  32.314 -16.634  1.00  0.00     0.209 C 
ATOM      8  C   UNL     1      38.079  33.283 -18.552  1.00  0.00     0.041 C 
BRANCH   5   9
ATOM      9  O   UNL     1      35.704  35.166 -18.011  1.00  0.00    -0.388 OA
ATOM     10  H   UNL     1      36.571  35.287 -17.581  1.00  0.00     0.211 HD
ENDBRANCH   5   9
BRANCH   6  11
ATOM     11  O   UNL     1      33.629  32.479 -18.932  1.00  0.00    -0.387 OA
ATOM     12  H   UNL     1      33.963  32.880 -19.763  1.00  0.00     0.211 HD
ENDBRANCH   6  11
BRANCH   7  13
ATOM     13  O   UNL     1      33.149  31.696 -16.386  1.00  0.00    -0.338 OA
BRANCH  13  14
ATOM     14  C   UNL     1      32.821  31.606 -14.996  1.00  0.00     0.282 C 
ATOM     15  O   UNL     1      33.960  31.242 -14.223  1.00  0.00    -0.341 OA
ATOM     16  C   UNL     1      31.726  30.530 -14.862  1.00  0.00     0.202 C 
ATOM     17  C   UNL     1      33.662  31.163 -12.823  1.00  0.00     0.178 C 
ATOM     18  C   UNL     1      31.378  30.322 -13.391  1.00  0.00     0.179 C 
ATOM     19  C   UNL     1      32.639  30.043 -12.571  1.00  0.00     0.177 C 
BRANCH  16  20
ATOM     20  O   UNL     1      30.528  30.891 -15.567  1.00  0.00    -0.385 OA
ATOM     21  H   UNL     1      30.499  30.300 -16.351  1.00  0.00     0.211 HD
ENDBRANCH  16  20
BRANCH  17  22
ATOM     22  C   UNL     1      34.956  30.921 -12.034  1.00  0.00     0.191 C 
BRANCH  22  23
ATOM     23  O   UNL     1      35.947  31.901 -12.333  1.00  0.00    -0.394 OA
ATOM     24  H   UNL     1      36.662  31.787 -11.671  1.00  0.00     0.210 HD
ENDBRANCH  22  23
ENDBRANCH  17  22
BRANCH  18  25
ATOM     25  O   UNL     1      30.469  29.219 -13.244  1.00  0.00    -0.387 OA
ATOM     26  H   UNL     1      29.683  29.599 -12.801  1.00  0.00     0.211 HD
ENDBRANCH  18  25
BRANCH  19  27
ATOM     27  O   UNL     1      32.295  29.949 -11.183  1.00  0.00    -0.387 OA
ATOM     28  H   UNL     1      31.338  30.161 -11.148  1.00  0.00     0.211 HD
ENDBRANCH  19  27
ENDBRANCH  13  14
ENDBRANCH   7  13
ENDBRANCH   1   2
BRANCH   1  29
ATOM     29  C   UNL     1      36.091  29.557 -15.248  1.00  0.00     0.198 C 
BRANCH  29  30
ATOM     30  C   UNL     1      37.285  28.798 -15.851  1.00  0.00     0.180 C 
ATOM     31  O   UNL     1      37.915  28.010 -14.837  1.00  0.00    -0.332 OA
ATOM     32  C   UNL     1      36.835  27.840 -16.964  1.00  0.00     0.177 C 
ATOM     33  C   UNL     1      39.224  27.565 -15.221  1.00  0.00     0.339 C 
ATOM     34  C   UNL     1      37.932  26.794 -17.275  1.00  0.00     0.180 C 
ATOM     35  C   UNL     1      39.314  27.192 -16.727  1.00  0.00     0.214 C 
BRANCH  32  36
ATOM     36  O   UNL     1      36.502  28.583 -18.139  1.00  0.00    -0.387 OA
ATOM     37  H   UNL     1      35.599  28.324 -18.398  1.00  0.00     0.211 HD
ENDBRANCH  32  36
BRANCH  33  38
ATOM     38  O   UNL     1      39.556  26.379 -14.468  1.00  0.00    -0.462 OA
BRANCH  38  39
ATOM     39  C   UNL     1      40.914  26.234 -14.382  1.00  0.00     0.123 A 
ATOM     40  C   UNL     1      41.601  25.498 -15.344  1.00  0.00     0.047 A 
ATOM     41  C   UNL     1      41.599  26.868 -13.349  1.00  0.00     0.047 A 
ATOM     42  C   UNL     1      42.982  25.339 -15.236  1.00  0.00     0.016 A 
ATOM     43  C   UNL     1      42.983  26.709 -13.242  1.00  0.00     0.016 A 
ATOM     44  C   UNL     1      43.683  25.925 -14.172  1.00  0.00     0.021 A 
BRANCH  44  45
ATOM     45  C   UNL     1      45.137  25.742 -14.038  1.00  0.00     0.180 A 
ATOM     46  O   UNL     1      45.870  26.822 -14.507  1.00  0.00    -0.452 OA
ATOM     47  C   UNL     1      45.675  24.635 -13.497  1.00  0.00     0.208 A 
ATOM     48  C   UNL     1      47.241  26.762 -14.448  1.00  0.00     0.146 A 
ATOM     49  C   UNL     1      47.150  24.538 -13.416  1.00  0.00     0.238 A 
ATOM     50  C   UNL     1      47.943  27.861 -14.943  1.00  0.00     0.094 A 
ATOM     51  C   UNL     1      47.930  25.669 -13.924  1.00  0.00     0.111 A 
ATOM     52  O   UNL     1      47.679  23.537 -12.939  1.00  0.00    -0.285 OA
ATOM     53  C   UNL     1      49.335  27.852 -14.906  1.00  0.00     0.123 A 
ATOM     54  C   UNL     1      49.327  25.672 -13.891  1.00  0.00     0.134 A 
ATOM     55  C   UNL     1      50.032  26.766 -14.383  1.00  0.00     0.093 A 
BRANCH  47  56
ATOM     56  O   UNL     1      44.938  23.575 -12.990  1.00  0.00    -0.502 OA
ATOM     57  H   UNL     1      44.190  24.004 -12.515  1.00  0.00     0.293 HD
ENDBRANCH  47  56
BRANCH  53  58
ATOM     58  O   UNL     1      50.063  28.903 -15.378  1.00  0.00    -0.508 OA
ATOM     59  H   UNL     1      50.932  28.916 -14.943  1.00  0.00     0.293 HD
ENDBRANCH  53  58
BRANCH  54  60
ATOM     60  O   UNL     1      50.064  24.633 -13.390  1.00  0.00    -0.507 OA
ATOM     61  H   UNL     1      50.641  24.973 -12.672  1.00  0.00     0.293 HD
ENDBRANCH  54  60
ENDBRANCH  44  45
ENDBRANCH  38  39
ENDBRANCH  33  38
BRANCH  34  62
ATOM     62  O   UNL     1      37.541  25.512 -16.765  1.00  0.00    -0.387 OA
ATOM     63  H   UNL     1      38.168  24.843 -17.107  1.00  0.00     0.211 HD
ENDBRANCH  34  62
BRANCH  35  64
ATOM     64  O   UNL     1      39.838  28.308 -17.467  1.00  0.00    -0.384 OA
ATOM     65  H   UNL     1      39.091  28.889 -17.700  1.00  0.00     0.211 HD
ENDBRANCH  35  64
ENDBRANCH  29  30
ENDBRANCH   1  29
TORSDOF 21
ENDMDL
MODEL 3
REMARK VINA RESULT:     4.671      1.668      2.815
REMARK INTER + INTRA:           6.991
REMARK INTER:                   5.740
REMARK INTRA:                   1.251
REMARK UNBOUND:                -1.777
REMARK SMILES C[C@@H]1O[C@@H](OC[C@H]2O[C@@H](Oc3ccc(-c4oc5cc(O)cc(O)c5c(=O)c4O)cc3)[C@H](O)[C@@H](O)[C@@H]2O)[C@H](O[C@@H]2O[C@H](CO)[C@@H](O)[C@H](O)[C@H]2O)[C@H](O)[C@H]1O
REMARK SMILES IDX 5 1 4 2 2 3 3 4 52 5 50 6 37 7 1 8 53 9 51 11 38 13 39 14
REMARK SMILES IDX 40 15 48 16 41 17 46 18 44 19 49 20 42 22 43 23 47 25 45 27
REMARK SMILES IDX 6 29 7 30 8 31 35 32 9 33 33 34 31 35 36 36 10 38 11 39
REMARK SMILES IDX 12 40 30 41 13 42 29 43 14 44 15 45 16 46 27 47 17 48 25 49
REMARK SMILES IDX 18 50 24 51 26 52 19 53 22 54 21 55 28 56 20 58 23 60 34 62
REMARK SMILES IDX 32 64
REMARK H PARENT 53 10 51 12 49 21 43 24 47 26 45 28 36 37 28 57 20 59 23 61
REMARK H PARENT 34 63 32 65
ROOT
ATOM      1  O   UNL     1      35.317  30.814 -13.854  1.00  0.00    -0.347 OA
ENDROOT
BRANCH   1   2
ATOM      2  C   UNL     1      33.995  31.322 -13.643  1.00  0.00     0.282 C 
ATOM      3  C   UNL     1      32.769  29.469 -12.802  1.00  0.00     0.150 C 
ATOM      4  O   UNL     1      33.437  30.689 -12.486  1.00  0.00    -0.344 OA
ATOM      5  C   UNL     1      31.470  29.783 -13.564  1.00  0.00     0.174 C 
ATOM      6  C   UNL     1      31.686  30.874 -14.627  1.00  0.00     0.180 C 
ATOM      7  C   UNL     1      33.171  31.098 -14.941  1.00  0.00     0.209 C 
ATOM      8  C   UNL     1      32.482  28.735 -11.497  1.00  0.00     0.041 C 
BRANCH   5   9
ATOM      9  O   UNL     1      30.989  28.585 -14.185  1.00  0.00    -0.388 OA
ATOM     10  H   UNL     1      31.601  27.871 -13.930  1.00  0.00     0.211 HD
ENDBRANCH   5   9
BRANCH   6  11
ATOM     11  O   UNL     1      31.076  32.102 -14.195  1.00  0.00    -0.387 OA
ATOM     12  H   UNL     1      31.412  32.257 -13.286  1.00  0.00     0.211 HD
ENDBRANCH   6  11
BRANCH   7  13
ATOM     13  O   UNL     1      33.249  32.258 -15.800  1.00  0.00    -0.338 OA
BRANCH  13  14
ATOM     14  C   UNL     1      34.376  32.236 -16.681  1.00  0.00     0.282 C 
ATOM     15  O   UNL     1      35.598  32.181 -15.952  1.00  0.00    -0.341 OA
ATOM     16  C   UNL     1      34.318  33.530 -17.517  1.00  0.00     0.202 C 
ATOM     17  C   UNL     1      36.743  32.139 -16.814  1.00  0.00     0.178 C 
ATOM     18  C   UNL     1      35.537  33.615 -18.431  1.00  0.00     0.179 C 
ATOM     19  C   UNL     1      36.828  33.440 -17.629  1.00  0.00     0.177 C 
BRANCH  16  20
ATOM     20  O   UNL     1      33.134  33.594 -18.328  1.00  0.00    -0.385 OA
ATOM     21  H   UNL     1      33.282  32.953 -19.055  1.00  0.00     0.211 HD
ENDBRANCH  16  20
BRANCH  17  22
ATOM     22  C   UNL     1      38.011  31.924 -15.976  1.00  0.00     0.191 C 
BRANCH  22  23
ATOM     23  O   UNL     1      39.185  31.938 -16.785  1.00  0.00    -0.394 OA
ATOM     24  H   UNL     1      39.143  32.754 -17.327  1.00  0.00     0.210 HD
ENDBRANCH  22  23
ENDBRANCH  17  22
BRANCH  18  25
ATOM     25  O   UNL     1      35.570  34.885 -19.103  1.00  0.00    -0.387 OA
ATOM     26  H   UNL     1      35.141  34.722 -19.968  1.00  0.00     0.211 HD
ENDBRANCH  18  25
BRANCH  19  27
ATOM     27  O   UNL     1      37.948  33.425 -18.523  1.00  0.00    -0.387 OA
ATOM     28  H   UNL     1      38.020  32.493 -18.818  1.00  0.00     0.211 HD
ENDBRANCH  19  27
ENDBRANCH  13  14
ENDBRANCH   7  13
ENDBRANCH   1   2
BRANCH   1  29
ATOM     29  C   UNL     1      35.346  29.621 -14.647  1.00  0.00     0.198 C 
BRANCH  29  30
ATOM     30  C   UNL     1      36.796  29.183 -14.915  1.00  0.00     0.180 C 
ATOM     31  O   UNL     1      37.247  28.339 -13.852  1.00  0.00    -0.332 OA
ATOM     32  C   UNL     1      36.906  28.378 -16.219  1.00  0.00     0.177 C 
ATOM     33  C   UNL     1      38.674  28.185 -13.840  1.00  0.00     0.339 C 
ATOM     34  C   UNL     1      38.238  27.594 -16.279  1.00  0.00     0.180 C 
ATOM     35  C   UNL     1      39.281  28.105 -15.268  1.00  0.00     0.214 C 
BRANCH  32  36
ATOM     36  O   UNL     1      36.789  29.256 -17.342  1.00  0.00    -0.387 OA
ATOM     37  H   UNL     1      36.331  30.059 -17.033  1.00  0.00     0.211 HD
ENDBRANCH  32  36
BRANCH  33  38
ATOM     38  O   UNL     1      39.007  26.953 -13.167  1.00  0.00    -0.462 OA
BRANCH  38  39
ATOM     39  C   UNL     1      40.343  26.684 -13.297  1.00  0.00     0.123 A 
ATOM     40  C   UNL     1      40.804  25.946 -14.383  1.00  0.00     0.047 A 
ATOM     41  C   UNL     1      41.232  27.198 -12.357  1.00  0.00     0.047 A 
ATOM     42  C   UNL     1      42.165  25.661 -14.496  1.00  0.00     0.016 A 
ATOM     43  C   UNL     1      42.595  26.913 -12.472  1.00  0.00     0.016 A 
ATOM     44  C   UNL     1      43.070  26.123 -13.530  1.00  0.00     0.021 A 
BRANCH  44  45
ATOM     45  C   UNL     1      44.503  25.807 -13.630  1.00  0.00     0.180 A 
ATOM     46  O   UNL     1      45.308  26.933 -13.729  1.00  0.00    -0.452 OA
ATOM     47  C   UNL     1      44.964  24.544 -13.609  1.00  0.00     0.208 A 
ATOM     48  C   UNL     1      46.666  26.764 -13.842  1.00  0.00     0.146 A 
ATOM     49  C   UNL     1      46.423  24.325 -13.728  1.00  0.00     0.238 A 
ATOM     50  C   UNL     1      47.439  27.920 -13.954  1.00  0.00     0.094 A 
ATOM     51  C   UNL     1      47.275  25.510 -13.848  1.00  0.00     0.111 A 
ATOM     52  O   UNL     1      46.880  23.184 -13.725  1.00  0.00    -0.285 OA
ATOM     53  C   UNL     1      48.821  27.805 -14.070  1.00  0.00     0.123 A 
ATOM     54  C   UNL     1      48.665  25.407 -13.964  1.00  0.00     0.134 A 
ATOM     55  C   UNL     1      49.440  26.557 -14.075  1.00  0.00     0.093 A 
BRANCH  47  56
ATOM     56  O   UNL     1      44.161  23.422 -13.468  1.00  0.00    -0.502 OA
ATOM     57  H   UNL     1      44.698  22.805 -12.920  1.00  0.00     0.293 HD
ENDBRANCH  47  56
BRANCH  53  58
ATOM     58  O   UNL     1      49.618  28.906 -14.182  1.00  0.00    -0.508 OA
ATOM     59  H   UNL     1      49.165  29.579 -14.717  1.00  0.00     0.293 HD
ENDBRANCH  53  58
BRANCH  54  60
ATOM     60  O   UNL     1      49.326  24.208 -13.975  1.00  0.00    -0.507 OA
ATOM     61  H   UNL     1      48.897  23.618 -14.632  1.00  0.00     0.293 HD
ENDBRANCH  54  60
ENDBRANCH  44  45
ENDBRANCH  38  39
ENDBRANCH  33  38
BRANCH  34  62
ATOM     62  O   UNL     1      37.990  26.196 -16.078  1.00  0.00    -0.387 OA
ATOM     63  H   UNL     1      38.128  25.736 -16.931  1.00  0.00     0.211 HD
ENDBRANCH  34  62
BRANCH  35  64
ATOM     64  O   UNL     1      39.756  29.404 -15.661  1.00  0.00    -0.384 OA
ATOM     65  H   UNL     1      39.655  30.003 -14.898  1.00  0.00     0.211 HD
ENDBRANCH  35  64
ENDBRANCH  29  30
ENDBRANCH   1  29
TORSDOF 21
ENDMDL
MODEL 4
REMARK VINA RESULT:     5.160      2.504      4.263
REMARK INTER + INTRA:           7.908
REMARK INTER:                   7.270
REMARK INTRA:                   0.638
REMARK UNBOUND:                -1.777
REMARK SMILES C[C@@H]1O[C@@H](OC[C@H]2O[C@@H](Oc3ccc(-c4oc5cc(O)cc(O)c5c(=O)c4O)cc3)[C@H](O)[C@@H](O)[C@@H]2O)[C@H](O[C@@H]2O[C@H](CO)[C@@H](O)[C@H](O)[C@H]2O)[C@H](O)[C@H]1O
REMARK SMILES IDX 5 1 4 2 2 3 3 4 52 5 50 6 37 7 1 8 53 9 51 11 38 13 39 14
REMARK SMILES IDX 40 15 48 16 41 17 46 18 44 19 49 20 42 22 43 23 47 25 45 27
REMARK SMILES IDX 6 29 7 30 8 31 35 32 9 33 33 34 31 35 36 36 10 38 11 39
REMARK SMILES IDX 12 40 30 41 13 42 29 43 14 44 15 45 16 46 27 47 17 48 25 49
REMARK SMILES IDX 18 50 24 51 26 52 19 53 22 54 21 55 28 56 20 58 23 60 34 62
REMARK SMILES IDX 32 64
REMARK H PARENT 53 10 51 12 49 21 43 24 47 26 45 28 36 37 28 57 20 59 23 61
REMARK H PARENT 34 63 32 65
ROOT
ATOM      1  O   UNL     1      34.386  31.132 -17.144  1.00  0.00    -0.347 OA
ENDROOT
BRANCH   1   2
ATOM      2  C   UNL     1      33.304  31.970 -16.724  1.00  0.00     0.282 C 
ATOM      3  C   UNL     1      31.588  31.575 -18.319  1.00  0.00     0.150 C 
ATOM      4  O   UNL     1      32.068  31.301 -17.005  1.00  0.00    -0.344 OA
ATOM      5  C   UNL     1      31.103  33.033 -18.392  1.00  0.00     0.174 C 
ATOM      6  C   UNL     1      32.078  33.990 -17.682  1.00  0.00     0.180 C 
ATOM      7  C   UNL     1      33.448  33.346 -17.429  1.00  0.00     0.209 C 
ATOM      8  C   UNL     1      30.456  30.600 -18.622  1.00  0.00     0.041 C 
BRANCH   5   9
ATOM      9  O   UNL     1      30.961  33.413 -19.765  1.00  0.00    -0.388 OA
ATOM     10  H   UNL     1      31.058  32.599 -20.294  1.00  0.00     0.211 HD
ENDBRANCH   5   9
BRANCH   6  11
ATOM     11  O   UNL     1      31.502  34.442 -16.445  1.00  0.00    -0.387 OA
ATOM     12  H   UNL     1      32.143  35.088 -16.077  1.00  0.00     0.211 HD
ENDBRANCH   6  11
BRANCH   7  13
ATOM     13  O   UNL     1      34.198  34.265 -16.603  1.00  0.00    -0.338 OA
BRANCH  13  14
ATOM     14  C   UNL     1      35.547  34.451 -17.042  1.00  0.00     0.282 C 
ATOM     15  O   UNL     1      35.597  34.775 -18.427  1.00  0.00    -0.341 OA
ATOM     16  C   UNL     1      36.290  33.125 -16.783  1.00  0.00     0.202 C 
ATOM     17  C   UNL     1      36.938  34.984 -18.888  1.00  0.00     0.178 C 
ATOM     18  C   UNL     1      37.722  33.221 -17.300  1.00  0.00     0.179 C 
ATOM     19  C   UNL     1      37.742  33.680 -18.759  1.00  0.00     0.177 C 
BRANCH  16  20
ATOM     20  O   UNL     1      36.329  32.794 -15.386  1.00  0.00    -0.385 OA
ATOM     21  H   UNL     1      35.401  32.590 -15.140  1.00  0.00     0.211 HD
ENDBRANCH  16  20
BRANCH  17  22
ATOM     22  C   UNL     1      36.913  35.479 -20.340  1.00  0.00     0.191 C 
BRANCH  22  23
ATOM     23  O   UNL     1      36.563  36.859 -20.421  1.00  0.00    -0.394 OA
ATOM     24  H   UNL     1      35.741  36.909 -20.954  1.00  0.00     0.210 HD
ENDBRANCH  22  23
ENDBRANCH  17  22
BRANCH  18  25
ATOM     25  O   UNL     1      38.376  31.945 -17.199  1.00  0.00    -0.387 OA
ATOM     26  H   UNL     1      38.703  31.903 -16.277  1.00  0.00     0.211 HD
ENDBRANCH  18  25
BRANCH  19  27
ATOM     27  O   UNL     1      39.099  33.856 -19.186  1.00  0.00    -0.387 OA
ATOM     28  H   UNL     1      39.579  34.142 -18.380  1.00  0.00     0.211 HD
ENDBRANCH  19  27
ENDBRANCH  13  14
ENDBRANCH   7  13
ENDBRANCH   1   2
BRANCH   1  29
ATOM     29  C   UNL     1      34.552  29.967 -16.325  1.00  0.00     0.198 C 
BRANCH  29  30
ATOM     30  C   UNL     1      36.041  29.722 -16.027  1.00  0.00     0.180 C 
ATOM     31  O   UNL     1      36.176  29.045 -14.775  1.00  0.00    -0.332 OA
ATOM     32  C   UNL     1      36.687  28.834 -17.102  1.00  0.00     0.177 C 
ATOM     33  C   UNL     1      37.515  29.099 -14.261  1.00  0.00     0.339 C 
ATOM     34  C   UNL     1      38.031  28.248 -16.605  1.00  0.00     0.180 C 
ATOM     35  C   UNL     1      38.590  28.988 -15.377  1.00  0.00     0.214 C 
BRANCH  32  36
ATOM     36  O   UNL     1      36.881  29.587 -18.302  1.00  0.00    -0.387 OA
ATOM     37  H   UNL     1      37.405  30.374 -18.066  1.00  0.00     0.211 HD
ENDBRANCH  32  36
BRANCH  33  38
ATOM     38  O   UNL     1      37.717  27.990 -13.361  1.00  0.00    -0.462 OA
BRANCH  38  39
ATOM     39  C   UNL     1      39.031  27.605 -13.367  1.00  0.00     0.123 A 
ATOM     40  C   UNL     1      40.006  28.439 -12.828  1.00  0.00     0.047 A 
ATOM     41  C   UNL     1      39.368  26.354 -13.876  1.00  0.00     0.047 A 
ATOM     42  C   UNL     1      41.343  28.046 -12.857  1.00  0.00     0.016 A 
ATOM     43  C   UNL     1      40.708  25.961 -13.904  1.00  0.00     0.016 A 
ATOM     44  C   UNL     1      41.710  26.813 -13.415  1.00  0.00     0.021 A 
BRANCH  44  45
ATOM     45  C   UNL     1      43.121  26.402 -13.471  1.00  0.00     0.180 A 
ATOM     46  O   UNL     1      43.969  27.257 -12.781  1.00  0.00    -0.452 OA
ATOM     47  C   UNL     1      43.522  25.294 -14.119  1.00  0.00     0.208 A 
ATOM     48  C   UNL     1      45.315  26.984 -12.773  1.00  0.00     0.146 A 
ATOM     49  C   UNL     1      44.966  24.969 -14.129  1.00  0.00     0.238 A 
ATOM     50  C   UNL     1      46.135  27.875 -12.081  1.00  0.00     0.094 A 
ATOM     51  C   UNL     1      45.867  25.877 -13.416  1.00  0.00     0.111 A 
ATOM     52  O   UNL     1      45.372  23.972 -14.721  1.00  0.00    -0.285 OA
ATOM     53  C   UNL     1      47.508  27.645 -12.041  1.00  0.00     0.123 A 
ATOM     54  C   UNL     1      47.247  25.655 -13.367  1.00  0.00     0.134 A 
ATOM     55  C   UNL     1      48.069  26.541 -12.678  1.00  0.00     0.093 A 
BRANCH  47  56
ATOM     56  O   UNL     1      42.667  24.418 -14.772  1.00  0.00    -0.502 OA
ATOM     57  H   UNL     1      42.232  24.972 -15.460  1.00  0.00     0.293 HD
ENDBRANCH  47  56
BRANCH  53  58
ATOM     58  O   UNL     1      48.349  28.488 -11.377  1.00  0.00    -0.508 OA
ATOM     59  H   UNL     1      49.223  28.072 -11.293  1.00  0.00     0.293 HD
ENDBRANCH  53  58
BRANCH  54  60
ATOM     60  O   UNL     1      47.853  24.589 -13.974  1.00  0.00    -0.507 OA
ATOM     61  H   UNL     1      47.165  23.935 -14.223  1.00  0.00     0.293 HD
ENDBRANCH  54  60
ENDBRANCH  44  45
ENDBRANCH  38  39
ENDBRANCH  33  38
BRANCH  34  62
ATOM     62  O   UNL     1      37.877  26.851 -16.321  1.00  0.00    -0.387 OA
ATOM     63  H   UNL     1      37.253  26.474 -16.974  1.00  0.00     0.211 HD
ENDBRANCH  34  62
BRANCH  35  64
ATOM     64  O   UNL     1      39.033  30.304 -15.750  1.00  0.00    -0.384 OA
ATOM     65  H   UNL     1      39.706  30.206 -16.449  1.00  0.00     0.211 HD
ENDBRANCH  35  64
ENDBRANCH  29  30
ENDBRANCH   1  29
TORSDOF 21
ENDMDL
MODEL 5
REMARK VINA RESULT:     5.575      1.649      4.653
REMARK INTER + INTRA:           8.688
REMARK INTER:                   8.259
REMARK INTRA:                   0.429
REMARK UNBOUND:                -1.777
REMARK SMILES C[C@@H]1O[C@@H](OC[C@H]2O[C@@H](Oc3ccc(-c4oc5cc(O)cc(O)c5c(=O)c4O)cc3)[C@H](O)[C@@H](O)[C@@H]2O)[C@H](O[C@@H]2O[C@H](CO)[C@@H](O)[C@H](O)[C@H]2O)[C@H](O)[C@H]1O
REMARK SMILES IDX 5 1 4 2 2 3 3 4 52 5 50 6 37 7 1 8 53 9 51 11 38 13 39 14
REMARK SMILES IDX 40 15 48 16 41 17 46 18 44 19 49 20 42 22 43 23 47 25 45 27
REMARK SMILES IDX 6 29 7 30 8 31 35 32 9 33 33 34 31 35 36 36 10 38 11 39
REMARK SMILES IDX 12 40 30 41 13 42 29 43 14 44 15 45 16 46 27 47 17 48 25 49
REMARK SMILES IDX 18 50 24 51 26 52 19 53 22 54 21 55 28 56 20 58 23 60 34 62
REMARK SMILES IDX 32 64
REMARK H PARENT 53 10 51 12 49 21 43 24 47 26 45 28 36 37 28 57 20 59 23 61
REMARK H PARENT 34 63 32 65
ROOT
ATOM      1  O   UNL     1      34.091  31.249 -18.158  1.00  0.00    -0.347 OA
ENDROOT
BRANCH   1   2
ATOM      2  C   UNL     1      32.911  31.605 -17.430  1.00  0.00     0.282 C 
ATOM      3  C   UNL     1      31.471  32.563 -19.059  1.00  0.00     0.150 C 
ATOM      4  O   UNL     1      31.772  31.409 -18.277  1.00  0.00    -0.344 OA
ATOM      5  C   UNL     1      30.914  33.668 -18.145  1.00  0.00     0.174 C 
ATOM      6  C   UNL     1      31.716  33.778 -16.836  1.00  0.00     0.180 C 
ATOM      7  C   UNL     1      33.071  33.063 -16.920  1.00  0.00     0.209 C 
ATOM      8  C   UNL     1      30.455  32.161 -20.123  1.00  0.00     0.041 C 
BRANCH   5   9
ATOM      9  O   UNL     1      30.948  34.917 -18.844  1.00  0.00    -0.388 OA
ATOM     10  H   UNL     1      31.794  35.344 -18.614  1.00  0.00     0.211 HD
ENDBRANCH   5   9
BRANCH   6  11
ATOM     11  O   UNL     1      30.941  33.252 -15.745  1.00  0.00    -0.387 OA
ATOM     12  H   UNL     1      30.007  33.460 -15.962  1.00  0.00     0.211 HD
ENDBRANCH   6  11
BRANCH   7  13
ATOM     13  O   UNL     1      33.638  33.077 -15.590  1.00  0.00    -0.338 OA
BRANCH  13  14
ATOM     14  C   UNL     1      33.559  31.812 -14.926  1.00  0.00     0.282 C 
ATOM     15  O   UNL     1      32.328  31.676 -14.223  1.00  0.00    -0.341 OA
ATOM     16  C   UNL     1      34.741  31.749 -13.940  1.00  0.00     0.202 C 
ATOM     17  C   UNL     1      32.216  30.408 -13.565  1.00  0.00     0.178 C 
ATOM     18  C   UNL     1      34.678  30.453 -13.135  1.00  0.00     0.179 C 
ATOM     19  C   UNL     1      33.304  30.285 -12.484  1.00  0.00     0.177 C 
BRANCH  16  20
ATOM     20  O   UNL     1      36.008  31.807 -14.613  1.00  0.00    -0.385 OA
ATOM     21  H   UNL     1      36.480  30.987 -14.351  1.00  0.00     0.211 HD
ENDBRANCH  16  20
BRANCH  17  22
ATOM     22  C   UNL     1      30.814  30.263 -12.959  1.00  0.00     0.191 C 
BRANCH  22  23
ATOM     23  O   UNL     1      30.854  30.250 -11.534  1.00  0.00    -0.394 OA
ATOM     24  H   UNL     1      31.697  29.817 -11.281  1.00  0.00     0.210 HD
ENDBRANCH  22  23
ENDBRANCH  17  22
BRANCH  18  25
ATOM     25  O   UNL     1      35.687  30.452 -12.111  1.00  0.00    -0.387 OA
ATOM     26  H   UNL     1      35.190  30.520 -11.270  1.00  0.00     0.211 HD
ENDBRANCH  18  25
BRANCH  19  27
ATOM     27  O   UNL     1      33.242  29.018 -11.820  1.00  0.00    -0.387 OA
ATOM     28  H   UNL     1      33.994  29.028 -11.191  1.00  0.00     0.211 HD
ENDBRANCH  19  27
ENDBRANCH  13  14
ENDBRANCH   7  13
ENDBRANCH   1   2
BRANCH   1  29
ATOM     29  C   UNL     1      34.216  29.838 -18.381  1.00  0.00     0.198 C 
BRANCH  29  30
ATOM     30  C   UNL     1      35.636  29.358 -18.034  1.00  0.00     0.180 C 
ATOM     31  O   UNL     1      35.786  29.290 -16.614  1.00  0.00    -0.332 OA
ATOM     32  C   UNL     1      35.903  27.952 -18.593  1.00  0.00     0.177 C 
ATOM     33  C   UNL     1      37.160  29.202 -16.209  1.00  0.00     0.339 C 
ATOM     34  C   UNL     1      37.131  27.306 -17.910  1.00  0.00     0.180 C 
ATOM     35  C   UNL     1      38.013  28.328 -17.170  1.00  0.00     0.214 C 
BRANCH  32  36
ATOM     36  O   UNL     1      36.093  28.020 -20.008  1.00  0.00    -0.387 OA
ATOM     37  H   UNL     1      36.605  28.829 -20.191  1.00  0.00     0.211 HD
ENDBRANCH  32  36
BRANCH  33  38
ATOM     38  O   UNL     1      37.228  28.590 -14.905  1.00  0.00    -0.462 OA
BRANCH  38  39
ATOM     39  C   UNL     1      38.483  28.098 -14.673  1.00  0.00     0.123 A 
ATOM     40  C   UNL     1      39.334  28.744 -13.780  1.00  0.00     0.047 A 
ATOM     41  C   UNL     1      38.877  26.922 -15.306  1.00  0.00     0.047 A 
ATOM     42  C   UNL     1      40.618  28.245 -13.566  1.00  0.00     0.016 A 
ATOM     43  C   UNL     1      40.164  26.422 -15.090  1.00  0.00     0.016 A 
ATOM     44  C   UNL     1      41.054  27.092 -14.235  1.00  0.00     0.021 A 
BRANCH  44  45
ATOM     45  C   UNL     1      42.415  26.573 -14.033  1.00  0.00     0.180 A 
ATOM     46  O   UNL     1      43.235  27.446 -13.332  1.00  0.00    -0.452 OA
ATOM     47  C   UNL     1      42.797  25.363 -14.478  1.00  0.00     0.208 A 
ATOM     48  C   UNL     1      44.536  27.077 -13.093  1.00  0.00     0.146 A 
ATOM     49  C   UNL     1      44.192  24.933 -14.237  1.00  0.00     0.238 A 
ATOM     50  C   UNL     1      45.333  27.988 -12.399  1.00  0.00     0.094 A 
ATOM     51  C   UNL     1      45.067  25.857 -13.511  1.00  0.00     0.111 A 
ATOM     52  O   UNL     1      44.581  23.840 -14.640  1.00  0.00    -0.285 OA
ATOM     53  C   UNL     1      46.660  27.663 -12.129  1.00  0.00     0.123 A 
ATOM     54  C   UNL     1      46.400  25.542 -13.233  1.00  0.00     0.134 A 
ATOM     55  C   UNL     1      47.199  26.447 -12.541  1.00  0.00     0.093 A 
BRANCH  47  56
ATOM     56  O   UNL     1      41.962  24.476 -15.141  1.00  0.00    -0.502 OA
ATOM     57  H   UNL     1      42.411  24.319 -16.004  1.00  0.00     0.293 HD
ENDBRANCH  47  56
BRANCH  53  58
ATOM     58  O   UNL     1      47.476  28.521 -11.454  1.00  0.00    -0.508 OA
ATOM     59  H   UNL     1      48.280  28.680 -11.976  1.00  0.00     0.293 HD
ENDBRANCH  53  58
BRANCH  54  60
ATOM     60  O   UNL     1      46.983  24.363 -13.613  1.00  0.00    -0.507 OA
ATOM     61  H   UNL     1      46.436  23.953 -14.318  1.00  0.00     0.293 HD
ENDBRANCH  54  60
ENDBRANCH  44  45
ENDBRANCH  38  39
ENDBRANCH  33  38
BRANCH  34  62
ATOM     62  O   UNL     1      36.702  26.273 -17.012  1.00  0.00    -0.387 OA
ATOM     63  H   UNL     1      36.772  25.416 -17.478  1.00  0.00     0.211 HD
ENDBRANCH  34  62
BRANCH  35  64
ATOM     64  O   UNL     1      38.689  29.174 -18.116  1.00  0.00    -0.384 OA
ATOM     65  H   UNL     1      38.502  28.834 -19.010  1.00  0.00     0.211 HD
ENDBRANCH  35  64
ENDBRANCH  29  30
ENDBRANCH   1  29
TORSDOF 21
ENDMDL
