MODEL 1
REMARK VINA RESULT:    -9.795      0.000      0.000
REMARK INTER + INTRA:         -11.023
REMARK INTER:                 -11.226
REMARK INTRA:                   0.203
REMARK UNBOUND:                 0.203
REMARK SMILES O=c1c([O-])c(-c2ccc(O)cc2)oc2cc(O)cc(O)c12
REMARK SMILES IDX 1 1 2 2 3 3 4 4 5 5 13 6 14 7 15 8 16 9 18 10 19 11 21 12
REMARK SMILES IDX 6 13 7 14 12 15 8 16 11 17 9 18 10 19 20 21 17 23
REMARK H PARENT 10 20 20 22 17 24
ROOT
ATOM      1  O   UNL     1      40.083  26.361 -17.353  1.00  0.00    -0.290 OA
ATOM      2  C   UNL     1      39.434  27.036 -16.548  1.00  0.00     0.189 A 
ATOM      3  C   UNL     1      38.188  27.852 -16.884  1.00  0.00    -0.014 A 
ATOM      4  O   UNL     1      37.840  27.827 -18.104  1.00  0.00    -0.867 OA
ATOM      5  C   UNL     1      37.636  28.495 -15.816  1.00  0.00     0.130 A 
ATOM      6  O   UNL     1      38.106  28.477 -14.512  1.00  0.00    -0.456 OA
ATOM      7  C   UNL     1      39.226  27.763 -14.213  1.00  0.00     0.146 A 
ATOM      8  C   UNL     1      39.659  27.786 -12.884  1.00  0.00     0.094 A 
ATOM      9  C   UNL     1      40.797  27.075 -12.518  1.00  0.00     0.123 A 
ATOM     10  C   UNL     1      41.510  26.339 -13.458  1.00  0.00     0.093 A 
ATOM     11  C   UNL     1      41.068  26.323 -14.779  1.00  0.00     0.134 A 
ATOM     12  C   UNL     1      39.921  27.037 -15.162  1.00  0.00     0.106 A 
ENDROOT
BRANCH   5  13
ATOM     13  C   UNL     1      36.413  29.340 -15.920  1.00  0.00     0.017 A 
ATOM     14  C   UNL     1      35.826  29.935 -14.792  1.00  0.00     0.016 A 
ATOM     15  C   UNL     1      35.849  29.608 -17.180  1.00  0.00     0.016 A 
ATOM     16  C   UNL     1      34.702  30.756 -14.910  1.00  0.00     0.047 A 
ATOM     17  C   UNL     1      34.728  30.435 -17.304  1.00  0.00     0.047 A 
ATOM     18  C   UNL     1      34.162  30.998 -16.169  1.00  0.00     0.115 A 
BRANCH  18  19
ATOM     19  O   UNL     1      33.062  31.791 -16.325  1.00  0.00    -0.508 OA
ATOM     20  H   UNL     1      32.317  31.338 -15.897  1.00  0.00     0.293 HD
ENDBRANCH  18  19
ENDBRANCH   5  13
BRANCH  11  21
ATOM     21  O   UNL     1      41.810  25.579 -15.663  1.00  0.00    -0.507 OA
ATOM     22  H   UNL     1      41.200  24.878 -16.005  1.00  0.00     0.293 HD
ENDBRANCH  11  21
BRANCH   9  23
ATOM     23  O   UNL     1      41.189  27.123 -11.212  1.00  0.00    -0.508 OA
ATOM     24  H   UNL     1      42.044  27.583 -11.172  1.00  0.00     0.293 HD
ENDBRANCH   9  23
TORSDOF 4
ENDMDL
MODEL 2
REMARK VINA RESULT:    -9.495      5.402      8.363
REMARK INTER + INTRA:         -10.679
REMARK INTER:                 -10.402
REMARK INTRA:                  -0.277
REMARK UNBOUND:                 0.203
REMARK SMILES O=c1c([O-])c(-c2ccc(O)cc2)oc2cc(O)cc(O)c12
REMARK SMILES IDX 1 1 2 2 3 3 4 4 5 5 13 6 14 7 15 8 16 9 18 10 19 11 21 12
REMARK SMILES IDX 6 13 7 14 12 15 8 16 11 17 9 18 10 19 20 21 17 23
REMARK H PARENT 10 20 20 22 17 24
ROOT
ATOM      1  O   UNL     1      32.315  30.680 -15.055  1.00  0.00    -0.290 OA
ATOM      2  C   UNL     1      32.362  31.522 -15.958  1.00  0.00     0.189 A 
ATOM      3  C   UNL     1      31.149  32.143 -16.647  1.00  0.00    -0.014 A 
ATOM      4  O   UNL     1      30.025  31.714 -16.249  1.00  0.00    -0.867 OA
ATOM      5  C   UNL     1      31.462  33.067 -17.599  1.00  0.00     0.130 A 
ATOM      6  O   UNL     1      32.735  33.458 -17.981  1.00  0.00    -0.456 OA
ATOM      7  C   UNL     1      33.818  32.894 -17.378  1.00  0.00     0.146 A 
ATOM      8  C   UNL     1      35.079  33.320 -17.807  1.00  0.00     0.094 A 
ATOM      9  C   UNL     1      36.223  32.781 -17.228  1.00  0.00     0.123 A 
ATOM     10  C   UNL     1      36.128  31.822 -16.225  1.00  0.00     0.093 A 
ATOM     11  C   UNL     1      34.866  31.406 -15.805  1.00  0.00     0.134 A 
ATOM     12  C   UNL     1      33.703  31.942 -16.383  1.00  0.00     0.106 A 
ENDROOT
BRANCH   5  13
ATOM     13  C   UNL     1      30.431  33.799 -18.389  1.00  0.00     0.017 A 
ATOM     14  C   UNL     1      29.658  33.159 -19.370  1.00  0.00     0.016 A 
ATOM     15  C   UNL     1      30.169  35.154 -18.118  1.00  0.00     0.016 A 
ATOM     16  C   UNL     1      28.669  33.849 -20.076  1.00  0.00     0.047 A 
ATOM     17  C   UNL     1      29.175  35.848 -18.816  1.00  0.00     0.047 A 
ATOM     18  C   UNL     1      28.437  35.191 -19.792  1.00  0.00     0.115 A 
BRANCH  18  19
ATOM     19  O   UNL     1      27.483  35.900 -20.461  1.00  0.00    -0.508 OA
ATOM     20  H   UNL     1      26.672  35.867 -19.928  1.00  0.00     0.293 HD
ENDBRANCH  18  19
ENDBRANCH   5  13
BRANCH  11  21
ATOM     21  O   UNL     1      34.834  30.460 -14.812  1.00  0.00    -0.507 OA
ATOM     22  H   UNL     1      33.881  30.211 -14.705  1.00  0.00     0.293 HD
ENDBRANCH  11  21
BRANCH   9  23
ATOM     23  O   UNL     1      37.434  33.220 -17.673  1.00  0.00    -0.508 OA
ATOM     24  H   UNL     1      37.322  33.534 -18.586  1.00  0.00     0.293 HD
ENDBRANCH   9  23
TORSDOF 4
ENDMDL
MODEL 3
REMARK VINA RESULT:    -9.437      1.139      6.452
REMARK INTER + INTRA:         -10.613
REMARK INTER:                 -10.628
REMARK INTRA:                   0.015
REMARK UNBOUND:                 0.203
REMARK SMILES O=c1c([O-])c(-c2ccc(O)cc2)oc2cc(O)cc(O)c12
REMARK SMILES IDX 1 1 2 2 3 3 4 4 5 5 13 6 14 7 15 8 16 9 18 10 19 11 21 12
REMARK SMILES IDX 6 13 7 14 12 15 8 16 11 17 9 18 10 19 20 21 17 23
REMARK H PARENT 10 20 20 22 17 24
ROOT
ATOM      1  O   UNL     1      37.423  27.436 -18.181  1.00  0.00    -0.290 OA
ATOM      2  C   UNL     1      37.726  27.803 -17.041  1.00  0.00     0.189 A 
ATOM      3  C   UNL     1      38.860  27.221 -16.201  1.00  0.00    -0.014 A 
ATOM      4  O   UNL     1      39.500  26.270 -16.743  1.00  0.00    -0.867 OA
ATOM      5  C   UNL     1      39.011  27.812 -14.981  1.00  0.00     0.130 A 
ATOM      6  O   UNL     1      38.240  28.841 -14.465  1.00  0.00    -0.456 OA
ATOM      7  C   UNL     1      37.219  29.351 -15.207  1.00  0.00     0.146 A 
ATOM      8  C   UNL     1      36.470  30.384 -14.635  1.00  0.00     0.094 A 
ATOM      9  C   UNL     1      35.414  30.945 -15.345  1.00  0.00     0.123 A 
ATOM     10  C   UNL     1      35.093  30.493 -16.619  1.00  0.00     0.093 A 
ATOM     11  C   UNL     1      35.847  29.463 -17.180  1.00  0.00     0.134 A 
ATOM     12  C   UNL     1      36.915  28.887 -16.473  1.00  0.00     0.106 A 
ENDROOT
BRANCH   5  13
ATOM     13  C   UNL     1      40.060  27.403 -14.005  1.00  0.00     0.017 A 
ATOM     14  C   UNL     1      41.290  26.870 -14.421  1.00  0.00     0.016 A 
ATOM     15  C   UNL     1      39.855  27.602 -12.629  1.00  0.00     0.016 A 
ATOM     16  C   UNL     1      42.280  26.527 -13.496  1.00  0.00     0.047 A 
ATOM     17  C   UNL     1      40.844  27.266 -11.699  1.00  0.00     0.047 A 
ATOM     18  C   UNL     1      42.046  26.728 -12.140  1.00  0.00     0.115 A 
BRANCH  18  19
ATOM     19  O   UNL     1      42.985  26.402 -11.205  1.00  0.00    -0.508 OA
ATOM     20  H   UNL     1      42.854  25.467 -10.979  1.00  0.00     0.293 HD
ENDBRANCH  18  19
ENDBRANCH   5  13
BRANCH  11  21
ATOM     21  O   UNL     1      35.486  29.058 -18.441  1.00  0.00    -0.507 OA
ATOM     22  H   UNL     1      36.283  28.606 -18.819  1.00  0.00     0.293 HD
ENDBRANCH  11  21
BRANCH   9  23
ATOM     23  O   UNL     1      34.706  31.949 -14.752  1.00  0.00    -0.508 OA
ATOM     24  H   UNL     1      35.293  32.719 -14.664  1.00  0.00     0.293 HD
ENDBRANCH   9  23
TORSDOF 4
ENDMDL
MODEL 4
REMARK VINA RESULT:    -9.162      2.451      5.019
REMARK INTER + INTRA:         -10.298
REMARK INTER:                 -10.052
REMARK INTRA:                  -0.246
REMARK UNBOUND:                 0.203
REMARK SMILES O=c1c([O-])c(-c2ccc(O)cc2)oc2cc(O)cc(O)c12
REMARK SMILES IDX 1 1 2 2 3 3 4 4 5 5 13 6 14 7 15 8 16 9 18 10 19 11 21 12
REMARK SMILES IDX 6 13 7 14 12 15 8 16 11 17 9 18 10 19 20 21 17 23
REMARK H PARENT 10 20 20 22 17 24
ROOT
ATOM      1  O   UNL     1      36.646  30.256 -13.305  1.00  0.00    -0.290 OA
ATOM      2  C   UNL     1      36.070  30.244 -14.398  1.00  0.00     0.189 A 
ATOM      3  C   UNL     1      34.804  31.029 -14.735  1.00  0.00    -0.014 A 
ATOM      4  O   UNL     1      34.325  31.715 -13.781  1.00  0.00    -0.867 OA
ATOM      5  C   UNL     1      34.373  30.868 -16.018  1.00  0.00     0.130 A 
ATOM      6  O   UNL     1      34.959  30.072 -16.990  1.00  0.00    -0.456 OA
ATOM      7  C   UNL     1      36.080  29.360 -16.686  1.00  0.00     0.146 A 
ATOM      8  C   UNL     1      36.625  28.569 -17.702  1.00  0.00     0.094 A 
ATOM      9  C   UNL     1      37.770  27.819 -17.452  1.00  0.00     0.123 A 
ATOM     10  C   UNL     1      38.380  27.847 -16.204  1.00  0.00     0.093 A 
ATOM     11  C   UNL     1      37.827  28.639 -15.199  1.00  0.00     0.134 A 
ATOM     12  C   UNL     1      36.672  29.401 -15.438  1.00  0.00     0.106 A 
ENDROOT
BRANCH   5  13
ATOM     13  C   UNL     1      33.161  31.547 -16.558  1.00  0.00     0.017 A 
ATOM     14  C   UNL     1      33.240  32.476 -17.608  1.00  0.00     0.016 A 
ATOM     15  C   UNL     1      31.889  31.219 -16.057  1.00  0.00     0.016 A 
ATOM     16  C   UNL     1      32.091  33.076 -18.130  1.00  0.00     0.047 A 
ATOM     17  C   UNL     1      30.736  31.812 -16.580  1.00  0.00     0.047 A 
ATOM     18  C   UNL     1      30.847  32.738 -17.609  1.00  0.00     0.115 A 
BRANCH  18  19
ATOM     19  O   UNL     1      29.703  33.305 -18.089  1.00  0.00    -0.508 OA
ATOM     20  H   UNL     1      29.595  34.161 -17.642  1.00  0.00     0.293 HD
ENDBRANCH  18  19
ENDBRANCH   5  13
BRANCH  11  21
ATOM     21  O   UNL     1      38.472  28.628 -13.988  1.00  0.00    -0.507 OA
ATOM     22  H   UNL     1      38.720  27.684 -13.821  1.00  0.00     0.293 HD
ENDBRANCH  11  21
BRANCH   9  23
ATOM     23  O   UNL     1      38.271  27.059 -18.468  1.00  0.00    -0.508 OA
ATOM     24  H   UNL     1      37.773  26.225 -18.492  1.00  0.00     0.293 HD
ENDBRANCH   9  23
TORSDOF 4
ENDMDL
MODEL 5
REMARK VINA RESULT:    -9.022      1.412      6.471
REMARK INTER + INTRA:         -10.137
REMARK INTER:                 -10.283
REMARK INTRA:                   0.145
REMARK UNBOUND:                 0.203
REMARK SMILES O=c1c([O-])c(-c2ccc(O)cc2)oc2cc(O)cc(O)c12
REMARK SMILES IDX 1 1 2 2 3 3 4 4 5 5 13 6 14 7 15 8 16 9 18 10 19 11 21 12
REMARK SMILES IDX 6 13 7 14 12 15 8 16 11 17 9 18 10 19 20 21 17 23
REMARK H PARENT 10 20 20 22 17 24
ROOT
ATOM      1  O   UNL     1      35.521  29.364 -18.163  1.00  0.00    -0.290 OA
ATOM      2  C   UNL     1      36.197  29.190 -17.145  1.00  0.00     0.189 A 
ATOM      3  C   UNL     1      37.392  28.246 -17.031  1.00  0.00    -0.014 A 
ATOM      4  O   UNL     1      37.662  27.589 -18.081  1.00  0.00    -0.867 OA
ATOM      5  C   UNL     1      37.989  28.247 -15.805  1.00  0.00     0.130 A 
ATOM      6  O   UNL     1      37.604  28.993 -14.702  1.00  0.00    -0.456 OA
ATOM      7  C   UNL     1      36.530  29.824 -14.798  1.00  0.00     0.146 A 
ATOM      8  C   UNL     1      36.181  30.547 -13.653  1.00  0.00     0.094 A 
ATOM      9  C   UNL     1      35.093  31.413 -13.689  1.00  0.00     0.123 A 
ATOM     10  C   UNL     1      34.346  31.569 -14.851  1.00  0.00     0.093 A 
ATOM     11  C   UNL     1      34.703  30.843 -15.987  1.00  0.00     0.134 A 
ATOM     12  C   UNL     1      35.799  29.965 -15.963  1.00  0.00     0.106 A 
ENDROOT
BRANCH   5  13
ATOM     13  C   UNL     1      39.175  27.405 -15.479  1.00  0.00     0.017 A 
ATOM     14  C   UNL     1      39.832  26.641 -16.457  1.00  0.00     0.016 A 
ATOM     15  C   UNL     1      39.702  27.408 -14.176  1.00  0.00     0.016 A 
ATOM     16  C   UNL     1      40.965  25.887 -16.145  1.00  0.00     0.047 A 
ATOM     17  C   UNL     1      40.841  26.660 -13.859  1.00  0.00     0.047 A 
ATOM     18  C   UNL     1      41.460  25.903 -14.845  1.00  0.00     0.115 A 
BRANCH  18  19
ATOM     19  O   UNL     1      42.562  25.177 -14.500  1.00  0.00    -0.508 OA
ATOM     20  H   UNL     1      43.196  25.249 -15.232  1.00  0.00     0.293 HD
ENDBRANCH  18  19
ENDBRANCH   5  13
BRANCH  11  21
ATOM     21  O   UNL     1      33.932  31.038 -17.105  1.00  0.00    -0.507 OA
ATOM     22  H   UNL     1      34.424  31.692 -17.663  1.00  0.00     0.293 HD
ENDBRANCH  11  21
BRANCH   9  23
ATOM     23  O   UNL     1      34.783  32.100 -12.553  1.00  0.00    -0.508 OA
ATOM     24  H   UNL     1      35.577  32.128 -11.994  1.00  0.00     0.293 HD
ENDBRANCH   9  23
TORSDOF 4
ENDMDL
MODEL 6
REMARK VINA RESULT:    -8.834      2.397      7.820
REMARK INTER + INTRA:          -9.922
REMARK INTER:                  -9.848
REMARK INTRA:                  -0.074
REMARK UNBOUND:                 0.203
REMARK SMILES O=c1c([O-])c(-c2ccc(O)cc2)oc2cc(O)cc(O)c12
REMARK SMILES IDX 1 1 2 2 3 3 4 4 5 5 13 6 14 7 15 8 16 9 18 10 19 11 21 12
REMARK SMILES IDX 6 13 7 14 12 15 8 16 11 17 9 18 10 19 20 21 17 23
REMARK H PARENT 10 20 20 22 17 24
ROOT
ATOM      1  O   UNL     1      38.860  28.551 -12.998  1.00  0.00    -0.290 OA
ATOM      2  C   UNL     1      39.644  27.904 -13.700  1.00  0.00     0.189 A 
ATOM      3  C   UNL     1      41.031  27.433 -13.267  1.00  0.00    -0.014 A 
ATOM      4  O   UNL     1      41.375  27.776 -12.095  1.00  0.00    -0.867 OA
ATOM      5  C   UNL     1      41.697  26.714 -14.214  1.00  0.00     0.130 A 
ATOM      6  O   UNL     1      41.240  26.406 -15.486  1.00  0.00    -0.456 OA
ATOM      7  C   UNL     1      40.010  26.838 -15.879  1.00  0.00     0.146 A 
ATOM      8  C   UNL     1      39.602  26.504 -17.174  1.00  0.00     0.094 A 
ATOM      9  C   UNL     1      38.355  26.917 -17.632  1.00  0.00     0.123 A 
ATOM     10  C   UNL     1      37.507  27.658 -16.817  1.00  0.00     0.093 A 
ATOM     11  C   UNL     1      37.924  27.985 -15.528  1.00  0.00     0.134 A 
ATOM     12  C   UNL     1      39.181  27.575 -15.054  1.00  0.00     0.106 A 
ENDROOT
BRANCH   5  13
ATOM     13  C   UNL     1      43.061  26.154 -13.998  1.00  0.00     0.017 A 
ATOM     14  C   UNL     1      43.405  24.861 -14.422  1.00  0.00     0.016 A 
ATOM     15  C   UNL     1      44.061  26.947 -13.408  1.00  0.00     0.016 A 
ATOM     16  C   UNL     1      44.699  24.363 -14.247  1.00  0.00     0.047 A 
ATOM     17  C   UNL     1      45.359  26.456 -13.236  1.00  0.00     0.047 A 
ATOM     18  C   UNL     1      45.666  25.168 -13.653  1.00  0.00     0.115 A 
BRANCH  18  19
ATOM     19  O   UNL     1      46.939  24.716 -13.461  1.00  0.00    -0.508 OA
ATOM     20  H   UNL     1      47.466  25.005 -14.224  1.00  0.00     0.293 HD
ENDBRANCH  18  19
ENDBRANCH   5  13
BRANCH  11  21
ATOM     21  O   UNL     1      37.046  28.716 -14.768  1.00  0.00    -0.507 OA
ATOM     22  H   UNL     1      36.190  28.712 -15.265  1.00  0.00     0.293 HD
ENDBRANCH  11  21
BRANCH   9  23
ATOM     23  O   UNL     1      37.993  26.573 -18.901  1.00  0.00    -0.508 OA
ATOM     24  H   UNL     1      37.599  27.354 -19.323  1.00  0.00     0.293 HD
ENDBRANCH   9  23
TORSDOF 4
ENDMDL
MODEL 7
REMARK VINA RESULT:    -8.804      2.305      4.513
REMARK INTER + INTRA:          -9.887
REMARK INTER:                  -9.597
REMARK INTRA:                  -0.290
REMARK UNBOUND:                 0.203
REMARK SMILES O=c1c([O-])c(-c2ccc(O)cc2)oc2cc(O)cc(O)c12
REMARK SMILES IDX 1 1 2 2 3 3 4 4 5 5 13 6 14 7 15 8 16 9 18 10 19 11 21 12
REMARK SMILES IDX 6 13 7 14 12 15 8 16 11 17 9 18 10 19 20 21 17 23
REMARK H PARENT 10 20 20 22 17 24
ROOT
ATOM      1  O   UNL     1      37.369  29.814 -13.407  1.00  0.00    -0.290 OA
ATOM      2  C   UNL     1      36.746  29.875 -14.472  1.00  0.00     0.189 A 
ATOM      3  C   UNL     1      35.553  30.790 -14.744  1.00  0.00    -0.014 A 
ATOM      4  O   UNL     1      35.191  31.509 -13.764  1.00  0.00    -0.867 OA
ATOM      5  C   UNL     1      35.050  30.690 -16.007  1.00  0.00     0.130 A 
ATOM      6  O   UNL     1      35.507  29.850 -17.011  1.00  0.00    -0.456 OA
ATOM      7  C   UNL     1      36.561  29.024 -16.765  1.00  0.00     0.146 A 
ATOM      8  C   UNL     1      36.975  28.194 -17.811  1.00  0.00     0.094 A 
ATOM      9  C   UNL     1      38.047  27.327 -17.621  1.00  0.00     0.123 A 
ATOM     10  C   UNL     1      38.712  27.276 -16.401  1.00  0.00     0.093 A 
ATOM     11  C   UNL     1      38.290  28.108 -15.366  1.00  0.00     0.134 A 
ATOM     12  C   UNL     1      37.209  28.987 -15.545  1.00  0.00     0.106 A 
ENDROOT
BRANCH   5  13
ATOM     13  C   UNL     1      33.892  31.496 -16.485  1.00  0.00     0.017 A 
ATOM     14  C   UNL     1      32.575  31.202 -16.099  1.00  0.00     0.016 A 
ATOM     15  C   UNL     1      34.108  32.623 -17.299  1.00  0.00     0.016 A 
ATOM     16  C   UNL     1      31.503  31.990 -16.525  1.00  0.00     0.047 A 
ATOM     17  C   UNL     1      33.040  33.419 -17.723  1.00  0.00     0.047 A 
ATOM     18  C   UNL     1      31.747  33.094 -17.336  1.00  0.00     0.115 A 
BRANCH  18  19
ATOM     19  O   UNL     1      30.726  33.886 -17.775  1.00  0.00    -0.508 OA
ATOM     20  H   UNL     1      30.448  34.439 -17.027  1.00  0.00     0.293 HD
ENDBRANCH  18  19
ENDBRANCH   5  13
BRANCH  11  21
ATOM     21  O   UNL     1      38.984  28.016 -14.186  1.00  0.00    -0.507 OA
ATOM     22  H   UNL     1      39.934  27.889 -14.439  1.00  0.00     0.293 HD
ENDBRANCH  11  21
BRANCH   9  23
ATOM     23  O   UNL     1      38.421  26.532 -18.664  1.00  0.00    -0.508 OA
ATOM     24  H   UNL     1      37.737  25.852 -18.783  1.00  0.00     0.293 HD
ENDBRANCH   9  23
TORSDOF 4
ENDMDL
MODEL 8
REMARK VINA RESULT:    -8.725     17.154     18.167
REMARK INTER + INTRA:          -9.796
REMARK INTER:                  -9.673
REMARK INTRA:                  -0.123
REMARK UNBOUND:                 0.203
REMARK SMILES O=c1c([O-])c(-c2ccc(O)cc2)oc2cc(O)cc(O)c12
REMARK SMILES IDX 1 1 2 2 3 3 4 4 5 5 13 6 14 7 15 8 16 9 18 10 19 11 21 12
REMARK SMILES IDX 6 13 7 14 12 15 8 16 11 17 9 18 10 19 20 21 17 23
REMARK H PARENT 10 20 20 22 17 24
ROOT
ATOM      1  O   UNL     1      53.820  18.263 -19.589  1.00  0.00    -0.290 OA
ATOM      2  C   UNL     1      53.498  19.193 -20.336  1.00  0.00     0.189 A 
ATOM      3  C   UNL     1      52.905  19.035 -21.734  1.00  0.00    -0.014 A 
ATOM      4  O   UNL     1      52.774  17.837 -22.132  1.00  0.00    -0.867 OA
ATOM      5  C   UNL     1      52.611  20.214 -22.352  1.00  0.00     0.130 A 
ATOM      6  O   UNL     1      52.813  21.485 -21.838  1.00  0.00    -0.456 OA
ATOM      7  C   UNL     1      53.355  21.628 -20.598  1.00  0.00     0.146 A 
ATOM      8  C   UNL     1      53.542  22.933 -20.132  1.00  0.00     0.094 A 
ATOM      9  C   UNL     1      54.092  23.143 -18.871  1.00  0.00     0.123 A 
ATOM     10  C   UNL     1      54.457  22.070 -18.067  1.00  0.00     0.093 A 
ATOM     11  C   UNL     1      54.265  20.773 -18.542  1.00  0.00     0.134 A 
ATOM     12  C   UNL     1      53.712  20.548 -19.813  1.00  0.00     0.106 A 
ENDROOT
BRANCH   5  13
ATOM     13  C   UNL     1      52.019  20.289 -23.718  1.00  0.00     0.017 A 
ATOM     14  C   UNL     1      52.524  19.530 -24.786  1.00  0.00     0.016 A 
ATOM     15  C   UNL     1      50.888  21.090 -23.951  1.00  0.00     0.016 A 
ATOM     16  C   UNL     1      51.935  19.581 -26.052  1.00  0.00     0.047 A 
ATOM     17  C   UNL     1      50.290  21.141 -25.214  1.00  0.00     0.047 A 
ATOM     18  C   UNL     1      50.821  20.390 -26.254  1.00  0.00     0.115 A 
BRANCH  18  19
ATOM     19  O   UNL     1      50.220  20.470 -27.477  1.00  0.00    -0.508 OA
ATOM     20  H   UNL     1      50.913  20.674 -28.126  1.00  0.00     0.293 HD
ENDBRANCH  18  19
ENDBRANCH   5  13
BRANCH  11  21
ATOM     21  O   UNL     1      54.642  19.753 -17.704  1.00  0.00    -0.507 OA
ATOM     22  H   UNL     1      54.042  18.994 -17.914  1.00  0.00     0.293 HD
ENDBRANCH  11  21
BRANCH   9  23
ATOM     23  O   UNL     1      54.261  24.430 -18.453  1.00  0.00    -0.508 OA
ATOM     24  H   UNL     1      53.687  24.572 -17.682  1.00  0.00     0.293 HD
ENDBRANCH   9  23
TORSDOF 4
ENDMDL
MODEL 9
REMARK VINA RESULT:    -8.583      2.191      7.458
REMARK INTER + INTRA:          -9.634
REMARK INTER:                  -9.334
REMARK INTRA:                  -0.300
REMARK UNBOUND:                 0.203
REMARK SMILES O=c1c([O-])c(-c2ccc(O)cc2)oc2cc(O)cc(O)c12
REMARK SMILES IDX 1 1 2 2 3 3 4 4 5 5 13 6 14 7 15 8 16 9 18 10 19 11 21 12
REMARK SMILES IDX 6 13 7 14 12 15 8 16 11 17 9 18 10 19 20 21 17 23
REMARK H PARENT 10 20 20 22 17 24
ROOT
ATOM      1  O   UNL     1      36.289  33.474 -17.883  1.00  0.00    -0.290 OA
ATOM      2  C   UNL     1      36.076  32.434 -17.251  1.00  0.00     0.189 A 
ATOM      3  C   UNL     1      37.143  31.431 -16.820  1.00  0.00    -0.014 A 
ATOM      4  O   UNL     1      38.325  31.713 -17.182  1.00  0.00    -0.867 OA
ATOM      5  C   UNL     1      36.659  30.372 -16.111  1.00  0.00     0.130 A 
ATOM      6  O   UNL     1      35.334  30.139 -15.780  1.00  0.00    -0.456 OA
ATOM      7  C   UNL     1      34.379  31.025 -16.177  1.00  0.00     0.146 A 
ATOM      8  C   UNL     1      33.058  30.738 -15.821  1.00  0.00     0.094 A 
ATOM      9  C   UNL     1      32.038  31.606 -16.198  1.00  0.00     0.123 A 
ATOM     10  C   UNL     1      32.316  32.759 -16.923  1.00  0.00     0.093 A 
ATOM     11  C   UNL     1      33.638  33.035 -17.271  1.00  0.00     0.134 A 
ATOM     12  C   UNL     1      34.676  32.166 -16.898  1.00  0.00     0.106 A 
ENDROOT
BRANCH   5  13
ATOM     13  C   UNL     1      37.529  29.279 -15.589  1.00  0.00     0.017 A 
ATOM     14  C   UNL     1      37.780  28.115 -16.331  1.00  0.00     0.016 A 
ATOM     15  C   UNL     1      38.170  29.425 -14.347  1.00  0.00     0.016 A 
ATOM     16  C   UNL     1      38.628  27.117 -15.845  1.00  0.00     0.047 A 
ATOM     17  C   UNL     1      39.025  28.432 -13.858  1.00  0.00     0.047 A 
ATOM     18  C   UNL     1      39.244  27.285 -14.609  1.00  0.00     0.115 A 
BRANCH  18  19
ATOM     19  O   UNL     1      40.075  26.331 -14.098  1.00  0.00    -0.508 OA
ATOM     20  H   UNL     1      40.805  26.218 -14.728  1.00  0.00     0.293 HD
ENDBRANCH  18  19
ENDBRANCH   5  13
BRANCH  11  21
ATOM     21  O   UNL     1      33.853  34.187 -17.986  1.00  0.00    -0.507 OA
ATOM     22  H   UNL     1      34.179  34.855 -17.331  1.00  0.00     0.293 HD
ENDBRANCH  11  21
BRANCH   9  23
ATOM     23  O   UNL     1      30.762  31.291 -15.834  1.00  0.00    -0.508 OA
ATOM     24  H   UNL     1      30.668  31.470 -14.883  1.00  0.00     0.293 HD
ENDBRANCH   9  23
TORSDOF 4
ENDMDL
