MODEL 1
REMARK VINA RESULT:    -4.935      0.000      0.000
REMARK INTER + INTRA:          -7.700
REMARK INTER:                  -9.263
REMARK INTRA:                   1.563
REMARK UNBOUND:                 1.563
REMARK SMILES C[C@@H]1O[C@@H](OC[C@H]2O[C@@H](Oc3ccc(-c4oc5cc(O)cc(O)c5c(=O)c4O)cc3)[C@H](O)[C@@H](O)[C@@H]2O)[C@H](O[C@@H]2O[C@H](CO)[C@@H](O)[C@H](O)[C@H]2O)[C@H](O)[C@H]1O
REMARK SMILES IDX 5 1 4 2 2 3 3 4 52 5 50 6 37 7 1 8 53 9 51 11 38 13 39 14
REMARK SMILES IDX 40 15 48 16 41 17 46 18 44 19 49 20 42 22 43 23 47 25 45 27
REMARK SMILES IDX 6 29 7 30 8 31 35 32 9 33 33 34 31 35 36 36 10 38 11 39
REMARK SMILES IDX 12 40 30 41 13 42 29 43 14 44 15 45 16 46 27 47 17 48 25 49
REMARK SMILES IDX 18 50 24 51 26 52 19 53 22 54 21 55 28 56 20 58 23 60 34 62
REMARK SMILES IDX 32 64
REMARK H PARENT 53 10 51 12 49 21 43 24 47 26 45 28 36 37 28 57 20 59 23 61
REMARK H PARENT 34 63 32 65
ROOT
ATOM      1  O   UNL     1      39.945  27.125 -14.005  1.00  0.00    -0.347 OA
ENDROOT
BRANCH   1   2
ATOM      2  C   UNL     1      39.061  26.626 -15.015  1.00  0.00     0.282 C 
ATOM      3  C   UNL     1      40.435  26.363 -16.935  1.00  0.00     0.150 C 
ATOM      4  O   UNL     1      39.783  25.711 -15.848  1.00  0.00    -0.344 OA
ATOM      5  C   UNL     1      39.381  26.842 -17.948  1.00  0.00     0.174 C 
ATOM      6  C   UNL     1      38.168  27.479 -17.246  1.00  0.00     0.180 C 
ATOM      7  C   UNL     1      38.463  27.836 -15.784  1.00  0.00     0.209 C 
ATOM      8  C   UNL     1      41.402  25.371 -17.571  1.00  0.00     0.041 C 
BRANCH   5   9
ATOM      9  O   UNL     1      39.982  27.789 -18.839  1.00  0.00    -0.388 OA
ATOM     10  H   UNL     1      39.654  28.669 -18.575  1.00  0.00     0.211 HD
ENDBRANCH   5   9
BRANCH   6  11
ATOM     11  O   UNL     1      37.039  26.593 -17.327  1.00  0.00    -0.387 OA
ATOM     12  H   UNL     1      37.415  25.687 -17.330  1.00  0.00     0.211 HD
ENDBRANCH   6  11
BRANCH   7  13
ATOM     13  O   UNL     1      37.209  28.246 -15.190  1.00  0.00    -0.338 OA
BRANCH  13  14
ATOM     14  C   UNL     1      36.718  29.488 -15.703  1.00  0.00     0.282 C 
ATOM     15  O   UNL     1      37.773  30.270 -16.254  1.00  0.00    -0.341 OA
ATOM     16  C   UNL     1      36.068  30.235 -14.522  1.00  0.00     0.202 C 
ATOM     17  C   UNL     1      37.304  31.513 -16.792  1.00  0.00     0.178 C 
ATOM     18  C   UNL     1      35.587  31.610 -14.978  1.00  0.00     0.179 C 
ATOM     19  C   UNL     1      36.717  32.379 -15.665  1.00  0.00     0.177 C 
BRANCH  16  20
ATOM     20  O   UNL     1      34.949  29.517 -13.981  1.00  0.00    -0.385 OA
ATOM     21  H   UNL     1      35.248  29.190 -13.105  1.00  0.00     0.211 HD
ENDBRANCH  16  20
BRANCH  17  22
ATOM     22  C   UNL     1      38.455  32.234 -17.504  1.00  0.00     0.191 C 
BRANCH  22  23
ATOM     23  O   UNL     1      37.987  33.329 -18.288  1.00  0.00    -0.394 OA
ATOM     24  H   UNL     1      38.777  33.732 -18.706  1.00  0.00     0.210 HD
ENDBRANCH  22  23
ENDBRANCH  17  22
BRANCH  18  25
ATOM     25  O   UNL     1      35.116  32.372 -13.854  1.00  0.00    -0.387 OA
ATOM     26  H   UNL     1      35.700  32.112 -13.112  1.00  0.00     0.211 HD
ENDBRANCH  18  25
BRANCH  19  27
ATOM     27  O   UNL     1      36.212  33.622 -16.168  1.00  0.00    -0.387 OA
ATOM     28  H   UNL     1      35.320  33.709 -15.770  1.00  0.00     0.211 HD
ENDBRANCH  19  27
ENDBRANCH  13  14
ENDBRANCH   7  13
ENDBRANCH   1   2
BRANCH   1  29
ATOM     29  C   UNL     1      40.567  26.089 -13.233  1.00  0.00     0.198 C 
BRANCH  29  30
ATOM     30  C   UNL     1      42.056  26.401 -13.008  1.00  0.00     0.180 C 
ATOM     31  O   UNL     1      42.856  25.379 -13.607  1.00  0.00    -0.332 OA
ATOM     32  C   UNL     1      42.453  27.735 -13.657  1.00  0.00     0.177 C 
ATOM     33  C   UNL     1      44.214  25.399 -13.142  1.00  0.00     0.339 C 
ATOM     34  C   UNL     1      43.989  27.849 -13.800  1.00  0.00     0.180 C 
ATOM     35  C   UNL     1      44.750  26.841 -12.921  1.00  0.00     0.214 C 
BRANCH  32  36
ATOM     36  O   UNL     1      41.938  28.823 -12.884  1.00  0.00    -0.387 OA
ATOM     37  H   UNL     1      42.219  28.679 -11.962  1.00  0.00     0.211 HD
ENDBRANCH  32  36
BRANCH  33  38
ATOM     38  O   UNL     1      45.059  24.778 -14.133  1.00  0.00    -0.462 OA
BRANCH  38  39
ATOM     39  C   UNL     1      46.230  25.474 -14.265  1.00  0.00     0.123 A 
ATOM     40  C   UNL     1      46.851  26.016 -13.143  1.00  0.00     0.047 A 
ATOM     41  C   UNL     1      46.811  25.591 -15.525  1.00  0.00     0.047 A 
ATOM     42  C   UNL     1      48.034  26.740 -13.291  1.00  0.00     0.016 A 
ATOM     43  C   UNL     1      47.995  26.316 -15.672  1.00  0.00     0.016 A 
ATOM     44  C   UNL     1      48.606  26.916 -14.560  1.00  0.00     0.021 A 
BRANCH  44  45
ATOM     45  C   UNL     1      49.840  27.699 -14.726  1.00  0.00     0.180 A 
ATOM     46  O   UNL     1      50.279  27.755 -16.041  1.00  0.00    -0.452 OA
ATOM     47  C   UNL     1      50.453  28.302 -13.693  1.00  0.00     0.208 A 
ATOM     48  C   UNL     1      51.432  28.448 -16.320  1.00  0.00     0.146 A 
ATOM     49  C   UNL     1      51.698  29.058 -13.959  1.00  0.00     0.238 A 
ATOM     50  C   UNL     1      51.849  28.469 -17.652  1.00  0.00     0.094 A 
ATOM     51  C   UNL     1      52.175  29.109 -15.343  1.00  0.00     0.111 A 
ATOM     52  O   UNL     1      52.293  29.613 -13.038  1.00  0.00    -0.285 OA
ATOM     53  C   UNL     1      53.011  29.157 -17.990  1.00  0.00     0.123 A 
ATOM     54  C   UNL     1      53.339  29.797 -15.694  1.00  0.00     0.134 A 
ATOM     55  C   UNL     1      53.758  29.822 -17.021  1.00  0.00     0.093 A 
BRANCH  47  56
ATOM     56  O   UNL     1      49.989  28.279 -12.387  1.00  0.00    -0.502 OA
ATOM     57  H   UNL     1      50.458  27.517 -11.976  1.00  0.00     0.293 HD
ENDBRANCH  47  56
BRANCH  53  58
ATOM     58  O   UNL     1      53.457  29.206 -19.277  1.00  0.00    -0.508 OA
ATOM     59  H   UNL     1      52.698  29.190 -19.883  1.00  0.00     0.293 HD
ENDBRANCH  53  58
BRANCH  54  60
ATOM     60  O   UNL     1      54.113  30.468 -14.786  1.00  0.00    -0.507 OA
ATOM     61  H   UNL     1      54.674  29.818 -14.309  1.00  0.00     0.293 HD
ENDBRANCH  54  60
ENDBRANCH  44  45
ENDBRANCH  38  39
ENDBRANCH  33  38
BRANCH  34  62
ATOM     62  O   UNL     1      44.362  27.695 -15.176  1.00  0.00    -0.387 OA
ATOM     63  H   UNL     1      45.207  27.201 -15.210  1.00  0.00     0.211 HD
ENDBRANCH  34  62
BRANCH  35  64
ATOM     64  O   UNL     1      44.618  27.195 -11.534  1.00  0.00    -0.384 OA
ATOM     65  H   UNL     1      43.788  27.696 -11.431  1.00  0.00     0.211 HD
ENDBRANCH  35  64
ENDBRANCH  29  30
ENDBRANCH   1  29
TORSDOF 21
ENDMDL
MODEL 2
REMARK VINA RESULT:    -4.913      0.946      2.008
REMARK INTER + INTRA:          -7.658
REMARK INTER:                  -8.950
REMARK INTRA:                   1.292
REMARK UNBOUND:                 1.563
REMARK SMILES C[C@@H]1O[C@@H](OC[C@H]2O[C@@H](Oc3ccc(-c4oc5cc(O)cc(O)c5c(=O)c4O)cc3)[C@H](O)[C@@H](O)[C@@H]2O)[C@H](O[C@@H]2O[C@H](CO)[C@@H](O)[C@H](O)[C@H]2O)[C@H](O)[C@H]1O
REMARK SMILES IDX 5 1 4 2 2 3 3 4 52 5 50 6 37 7 1 8 53 9 51 11 38 13 39 14
REMARK SMILES IDX 40 15 48 16 41 17 46 18 44 19 49 20 42 22 43 23 47 25 45 27
REMARK SMILES IDX 6 29 7 30 8 31 35 32 9 33 33 34 31 35 36 36 10 38 11 39
REMARK SMILES IDX 12 40 30 41 13 42 29 43 14 44 15 45 16 46 27 47 17 48 25 49
REMARK SMILES IDX 18 50 24 51 26 52 19 53 22 54 21 55 28 56 20 58 23 60 34 62
REMARK SMILES IDX 32 64
REMARK H PARENT 53 10 51 12 49 21 43 24 47 26 45 28 36 37 28 57 20 59 23 61
REMARK H PARENT 34 63 32 65
ROOT
ATOM      1  O   UNL     1      40.113  27.115 -13.973  1.00  0.00    -0.347 OA
ENDROOT
BRANCH   1   2
ATOM      2  C   UNL     1      39.187  26.609 -14.941  1.00  0.00     0.282 C 
ATOM      3  C   UNL     1      40.487  26.294 -16.904  1.00  0.00     0.150 C 
ATOM      4  O   UNL     1      39.868  25.670 -15.782  1.00  0.00    -0.344 OA
ATOM      5  C   UNL     1      39.403  26.768 -17.887  1.00  0.00     0.174 C 
ATOM      6  C   UNL     1      38.224  27.432 -17.154  1.00  0.00     0.180 C 
ATOM      7  C   UNL     1      38.575  27.812 -15.709  1.00  0.00     0.209 C 
ATOM      8  C   UNL     1      41.420  25.279 -17.555  1.00  0.00     0.041 C 
BRANCH   5   9
ATOM      9  O   UNL     1      39.982  27.692 -18.816  1.00  0.00    -0.388 OA
ATOM     10  H   UNL     1      39.347  27.787 -19.550  1.00  0.00     0.211 HD
ENDBRANCH   5   9
BRANCH   6  11
ATOM     11  O   UNL     1      37.082  26.559 -17.178  1.00  0.00    -0.387 OA
ATOM     12  H   UNL     1      36.449  26.971 -17.805  1.00  0.00     0.211 HD
ENDBRANCH   6  11
BRANCH   7  13
ATOM     13  O   UNL     1      37.349  28.248 -15.079  1.00  0.00    -0.338 OA
BRANCH  13  14
ATOM     14  C   UNL     1      36.829  29.462 -15.628  1.00  0.00     0.282 C 
ATOM     15  O   UNL     1      37.867  30.256 -16.195  1.00  0.00    -0.341 OA
ATOM     16  C   UNL     1      36.152  30.224 -14.472  1.00  0.00     0.202 C 
ATOM     17  C   UNL     1      37.369  31.471 -16.769  1.00  0.00     0.178 C 
ATOM     18  C   UNL     1      35.639  31.573 -14.968  1.00  0.00     0.179 C 
ATOM     19  C   UNL     1      36.753  32.352 -15.669  1.00  0.00     0.177 C 
BRANCH  16  20
ATOM     20  O   UNL     1      35.049  29.491 -13.917  1.00  0.00    -0.385 OA
ATOM     21  H   UNL     1      34.477  29.264 -14.681  1.00  0.00     0.211 HD
ENDBRANCH  16  20
BRANCH  17  22
ATOM     22  C   UNL     1      38.506  32.202 -17.494  1.00  0.00     0.191 C 
BRANCH  22  23
ATOM     23  O   UNL     1      38.024  33.317 -18.240  1.00  0.00    -0.394 OA
ATOM     24  H   UNL     1      37.458  32.954 -18.954  1.00  0.00     0.210 HD
ENDBRANCH  22  23
ENDBRANCH  17  22
BRANCH  18  25
ATOM     25  O   UNL     1      35.142  32.353 -13.867  1.00  0.00    -0.387 OA
ATOM     26  H   UNL     1      35.903  32.897 -13.582  1.00  0.00     0.211 HD
ENDBRANCH  18  25
BRANCH  19  27
ATOM     27  O   UNL     1      36.220  33.567 -16.209  1.00  0.00    -0.387 OA
ATOM     28  H   UNL     1      35.337  33.660 -15.791  1.00  0.00     0.211 HD
ENDBRANCH  19  27
ENDBRANCH  13  14
ENDBRANCH   7  13
ENDBRANCH   1   2
BRANCH   1  29
ATOM     29  C   UNL     1      40.770  26.084 -13.224  1.00  0.00     0.198 C 
BRANCH  29  30
ATOM     30  C   UNL     1      42.256  26.426 -13.022  1.00  0.00     0.180 C 
ATOM     31  O   UNL     1      43.068  25.430 -13.650  1.00  0.00    -0.332 OA
ATOM     32  C   UNL     1      42.611  27.778 -13.660  1.00  0.00     0.177 C 
ATOM     33  C   UNL     1      44.433  25.475 -13.209  1.00  0.00     0.339 C 
ATOM     34  C   UNL     1      44.142  27.928 -13.829  1.00  0.00     0.180 C 
ATOM     35  C   UNL     1      44.941  26.925 -12.978  1.00  0.00     0.214 C 
BRANCH  32  36
ATOM     36  O   UNL     1      42.087  28.843 -12.863  1.00  0.00    -0.387 OA
ATOM     37  H   UNL     1      42.775  29.083 -12.215  1.00  0.00     0.211 HD
ENDBRANCH  32  36
BRANCH  33  38
ATOM     38  O   UNL     1      45.273  24.886 -14.223  1.00  0.00    -0.462 OA
BRANCH  38  39
ATOM     39  C   UNL     1      46.461  25.560 -14.309  1.00  0.00     0.123 A 
ATOM     40  C   UNL     1      47.058  26.073 -13.161  1.00  0.00     0.047 A 
ATOM     41  C   UNL     1      47.083  25.683 -15.548  1.00  0.00     0.047 A 
ATOM     42  C   UNL     1      48.258  26.775 -13.261  1.00  0.00     0.016 A 
ATOM     43  C   UNL     1      48.286  26.385 -15.648  1.00  0.00     0.016 A 
ATOM     44  C   UNL     1      48.873  26.957 -14.508  1.00  0.00     0.021 A 
BRANCH  44  45
ATOM     45  C   UNL     1      50.127  27.717 -14.625  1.00  0.00     0.180 A 
ATOM     46  O   UNL     1      50.851  27.766 -13.442  1.00  0.00    -0.452 OA
ATOM     47  C   UNL     1      50.519  28.284 -15.780  1.00  0.00     0.208 A 
ATOM     48  C   UNL     1      52.035  28.460 -13.424  1.00  0.00     0.146 A 
ATOM     49  C   UNL     1      51.792  29.039 -15.796  1.00  0.00     0.238 A 
ATOM     50  C   UNL     1      52.725  28.499 -12.212  1.00  0.00     0.094 A 
ATOM     51  C   UNL     1      52.552  29.107 -14.546  1.00  0.00     0.111 A 
ATOM     52  O   UNL     1      52.177  29.581 -16.829  1.00  0.00    -0.285 OA
ATOM     53  C   UNL     1      53.933  29.188 -12.138  1.00  0.00     0.123 A 
ATOM     54  C   UNL     1      53.766  29.795 -14.460  1.00  0.00     0.134 A 
ATOM     55  C   UNL     1      54.458  29.836 -13.254  1.00  0.00     0.093 A 
BRANCH  47  56
ATOM     56  O   UNL     1      49.815  28.197 -16.971  1.00  0.00    -0.502 OA
ATOM     57  H   UNL     1      49.326  29.050 -17.028  1.00  0.00     0.293 HD
ENDBRANCH  47  56
BRANCH  53  58
ATOM     58  O   UNL     1      54.642  29.254 -10.976  1.00  0.00    -0.508 OA
ATOM     59  H   UNL     1      55.194  30.053 -10.979  1.00  0.00     0.293 HD
ENDBRANCH  53  58
BRANCH  54  60
ATOM     60  O   UNL     1      54.329  30.450 -15.522  1.00  0.00    -0.507 OA
ATOM     61  H   UNL     1      54.713  29.786 -16.134  1.00  0.00     0.293 HD
ENDBRANCH  54  60
ENDBRANCH  44  45
ENDBRANCH  38  39
ENDBRANCH  33  38
BRANCH  34  62
ATOM     62  O   UNL     1      44.493  27.800 -15.214  1.00  0.00    -0.387 OA
ATOM     63  H   UNL     1      43.986  28.467 -15.720  1.00  0.00     0.211 HD
ENDBRANCH  34  62
BRANCH  35  64
ATOM     64  O   UNL     1      44.827  27.257 -11.584  1.00  0.00    -0.384 OA
ATOM     65  H   UNL     1      43.913  27.065 -11.305  1.00  0.00     0.211 HD
ENDBRANCH  35  64
ENDBRANCH  29  30
ENDBRANCH   1  29
TORSDOF 21
ENDMDL
MODEL 3
REMARK VINA RESULT:    -4.778      4.431      9.440
REMARK INTER + INTRA:          -7.405
REMARK INTER:                  -9.446
REMARK INTRA:                   2.041
REMARK UNBOUND:                 1.563
REMARK SMILES C[C@@H]1O[C@@H](OC[C@H]2O[C@@H](Oc3ccc(-c4oc5cc(O)cc(O)c5c(=O)c4O)cc3)[C@H](O)[C@@H](O)[C@@H]2O)[C@H](O[C@@H]2O[C@H](CO)[C@@H](O)[C@H](O)[C@H]2O)[C@H](O)[C@H]1O
REMARK SMILES IDX 5 1 4 2 2 3 3 4 52 5 50 6 37 7 1 8 53 9 51 11 38 13 39 14
REMARK SMILES IDX 40 15 48 16 41 17 46 18 44 19 49 20 42 22 43 23 47 25 45 27
REMARK SMILES IDX 6 29 7 30 8 31 35 32 9 33 33 34 31 35 36 36 10 38 11 39
REMARK SMILES IDX 12 40 30 41 13 42 29 43 14 44 15 45 16 46 27 47 17 48 25 49
REMARK SMILES IDX 18 50 24 51 26 52 19 53 22 54 21 55 28 56 20 58 23 60 34 62
REMARK SMILES IDX 32 64
REMARK H PARENT 53 10 51 12 49 21 43 24 47 26 45 28 36 37 28 57 20 59 23 61
REMARK H PARENT 34 63 32 65
ROOT
ATOM      1  O   UNL     1      32.558  31.831 -17.826  1.00  0.00    -0.347 OA
ENDROOT
BRANCH   1   2
ATOM      2  C   UNL     1      31.865  32.278 -16.655  1.00  0.00     0.282 C 
ATOM      3  C   UNL     1      32.680  30.886 -14.911  1.00  0.00     0.150 C 
ATOM      4  O   UNL     1      32.746  32.169 -15.530  1.00  0.00    -0.344 OA
ATOM      5  C   UNL     1      31.331  30.738 -14.186  1.00  0.00     0.174 C 
ATOM      6  C   UNL     1      30.168  31.273 -15.040  1.00  0.00     0.180 C 
ATOM      7  C   UNL     1      30.558  31.451 -16.513  1.00  0.00     0.209 C 
ATOM      8  C   UNL     1      33.847  30.771 -13.937  1.00  0.00     0.041 C 
BRANCH   5   9
ATOM      9  O   UNL     1      31.113  29.357 -13.876  1.00  0.00    -0.388 OA
ATOM     10  H   UNL     1      30.461  29.331 -13.152  1.00  0.00     0.211 HD
ENDBRANCH   5   9
BRANCH   6  11
ATOM     11  O   UNL     1      29.696  32.517 -14.494  1.00  0.00    -0.387 OA
ATOM     12  H   UNL     1      28.740  32.555 -14.716  1.00  0.00     0.211 HD
ENDBRANCH   6  11
BRANCH   7  13
ATOM     13  O   UNL     1      29.456  32.126 -17.162  1.00  0.00    -0.338 OA
BRANCH  13  14
ATOM     14  C   UNL     1      29.843  33.329 -17.833  1.00  0.00     0.282 C 
ATOM     15  O   UNL     1      29.094  34.444 -17.361  1.00  0.00    -0.341 OA
ATOM     16  C   UNL     1      29.577  33.110 -19.335  1.00  0.00     0.202 C 
ATOM     17  C   UNL     1      29.477  35.666 -18.005  1.00  0.00     0.178 C 
ATOM     18  C   UNL     1      29.895  34.386 -20.110  1.00  0.00     0.179 C 
ATOM     19  C   UNL     1      29.159  35.584 -19.507  1.00  0.00     0.177 C 
BRANCH  16  20
ATOM     20  O   UNL     1      30.369  32.040 -19.872  1.00  0.00    -0.385 OA
ATOM     21  H   UNL     1      30.075  31.940 -20.803  1.00  0.00     0.211 HD
ENDBRANCH  16  20
BRANCH  17  22
ATOM     22  C   UNL     1      28.748  36.845 -17.348  1.00  0.00     0.191 C 
BRANCH  22  23
ATOM     23  O   UNL     1      27.615  37.255 -18.109  1.00  0.00    -0.394 OA
ATOM     24  H   UNL     1      26.823  36.927 -17.633  1.00  0.00     0.210 HD
ENDBRANCH  22  23
ENDBRANCH  17  22
BRANCH  18  25
ATOM     25  O   UNL     1      29.509  34.242 -21.487  1.00  0.00    -0.387 OA
ATOM     26  H   UNL     1      28.798  33.569 -21.479  1.00  0.00     0.211 HD
ENDBRANCH  18  25
BRANCH  19  27
ATOM     27  O   UNL     1      29.552  36.780 -20.192  1.00  0.00    -0.387 OA
ATOM     28  H   UNL     1      29.841  37.391 -19.482  1.00  0.00     0.211 HD
ENDBRANCH  19  27
ENDBRANCH  13  14
ENDBRANCH   7  13
ENDBRANCH   1   2
BRANCH   1  29
ATOM     29  C   UNL     1      33.787  32.529 -18.060  1.00  0.00     0.198 C 
BRANCH  29  30
ATOM     30  C   UNL     1      34.910  31.962 -17.174  1.00  0.00     0.180 C 
ATOM     31  O   UNL     1      35.175  30.607 -17.543  1.00  0.00    -0.332 OA
ATOM     32  C   UNL     1      36.216  32.751 -17.353  1.00  0.00     0.177 C 
ATOM     33  C   UNL     1      35.937  29.905 -16.550  1.00  0.00     0.339 C 
ATOM     34  C   UNL     1      37.426  31.955 -16.809  1.00  0.00     0.180 C 
ATOM     35  C   UNL     1      37.014  30.801 -15.877  1.00  0.00     0.214 C 
BRANCH  32  36
ATOM     36  O   UNL     1      36.112  34.018 -16.698  1.00  0.00    -0.387 OA
ATOM     37  H   UNL     1      36.872  34.092 -16.092  1.00  0.00     0.211 HD
ENDBRANCH  32  36
BRANCH  33  38
ATOM     38  O   UNL     1      36.629  28.806 -17.178  1.00  0.00    -0.462 OA
BRANCH  38  39
ATOM     39  C   UNL     1      37.656  28.373 -16.385  1.00  0.00     0.123 A 
ATOM     40  C   UNL     1      37.805  28.878 -15.096  1.00  0.00     0.047 A 
ATOM     41  C   UNL     1      38.516  27.390 -16.866  1.00  0.00     0.047 A 
ATOM     42  C   UNL     1      38.867  28.444 -14.303  1.00  0.00     0.016 A 
ATOM     43  C   UNL     1      39.579  26.955 -16.071  1.00  0.00     0.016 A 
ATOM     44  C   UNL     1      39.777  27.495 -14.790  1.00  0.00     0.021 A 
BRANCH  44  45
ATOM     45  C   UNL     1      40.912  27.050 -13.968  1.00  0.00     0.180 A 
ATOM     46  O   UNL     1      42.002  26.632 -14.718  1.00  0.00    -0.452 OA
ATOM     47  C   UNL     1      40.878  27.071 -12.624  1.00  0.00     0.208 A 
ATOM     48  C   UNL     1      43.119  26.180 -14.061  1.00  0.00     0.146 A 
ATOM     49  C   UNL     1      42.066  26.592 -11.883  1.00  0.00     0.238 A 
ATOM     50  C   UNL     1      44.188  25.754 -14.851  1.00  0.00     0.094 A 
ATOM     51  C   UNL     1      43.214  26.135 -12.670  1.00  0.00     0.111 A 
ATOM     52  O   UNL     1      42.068  26.585 -10.654  1.00  0.00    -0.285 OA
ATOM     53  C   UNL     1      45.345  25.287 -14.234  1.00  0.00     0.123 A 
ATOM     54  C   UNL     1      44.382  25.665 -12.063  1.00  0.00     0.134 A 
ATOM     55  C   UNL     1      45.450  25.240 -12.846  1.00  0.00     0.093 A 
BRANCH  47  56
ATOM     56  O   UNL     1      39.803  27.529 -11.877  1.00  0.00    -0.502 OA
ATOM     57  H   UNL     1      40.165  28.296 -11.375  1.00  0.00     0.293 HD
ENDBRANCH  47  56
BRANCH  53  58
ATOM     58  O   UNL     1      46.415  24.861 -14.964  1.00  0.00    -0.508 OA
ATOM     59  H   UNL     1      47.223  25.285 -14.631  1.00  0.00     0.293 HD
ENDBRANCH  53  58
BRANCH  54  60
ATOM     60  O   UNL     1      44.541  25.596 -10.705  1.00  0.00    -0.507 OA
ATOM     61  H   UNL     1      45.104  26.346 -10.415  1.00  0.00     0.293 HD
ENDBRANCH  54  60
ENDBRANCH  44  45
ENDBRANCH  38  39
ENDBRANCH  33  38
BRANCH  34  62
ATOM     62  O   UNL     1      38.214  31.462 -17.900  1.00  0.00    -0.387 OA
ATOM     63  H   UNL     1      37.677  30.809 -18.394  1.00  0.00     0.211 HD
ENDBRANCH  34  62
BRANCH  35  64
ATOM     64  O   UNL     1      36.501  31.322 -14.640  1.00  0.00    -0.384 OA
ATOM     65  H   UNL     1      35.668  31.789 -14.834  1.00  0.00     0.211 HD
ENDBRANCH  35  64
ENDBRANCH  29  30
ENDBRANCH   1  29
TORSDOF 21
ENDMDL
MODEL 4
REMARK VINA RESULT:    -4.265      4.738      9.690
REMARK INTER + INTRA:          -6.442
REMARK INTER:                  -7.751
REMARK INTRA:                   1.309
REMARK UNBOUND:                 1.563
REMARK SMILES C[C@@H]1O[C@@H](OC[C@H]2O[C@@H](Oc3ccc(-c4oc5cc(O)cc(O)c5c(=O)c4O)cc3)[C@H](O)[C@@H](O)[C@@H]2O)[C@H](O[C@@H]2O[C@H](CO)[C@@H](O)[C@H](O)[C@H]2O)[C@H](O)[C@H]1O
REMARK SMILES IDX 5 1 4 2 2 3 3 4 52 5 50 6 37 7 1 8 53 9 51 11 38 13 39 14
REMARK SMILES IDX 40 15 48 16 41 17 46 18 44 19 49 20 42 22 43 23 47 25 45 27
REMARK SMILES IDX 6 29 7 30 8 31 35 32 9 33 33 34 31 35 36 36 10 38 11 39
REMARK SMILES IDX 12 40 30 41 13 42 29 43 14 44 15 45 16 46 27 47 17 48 25 49
REMARK SMILES IDX 18 50 24 51 26 52 19 53 22 54 21 55 28 56 20 58 23 60 34 62
REMARK SMILES IDX 32 64
REMARK H PARENT 53 10 51 12 49 21 43 24 47 26 45 28 36 37 28 57 20 59 23 61
REMARK H PARENT 34 63 32 65
ROOT
ATOM      1  O   UNL     1      32.943  32.646 -18.837  1.00  0.00    -0.347 OA
ENDROOT
BRANCH   1   2
ATOM      2  C   UNL     1      31.579  32.255 -18.648  1.00  0.00     0.282 C 
ATOM      3  C   UNL     1      30.340  34.265 -18.910  1.00  0.00     0.150 C 
ATOM      4  O   UNL     1      30.751  33.041 -19.514  1.00  0.00    -0.344 OA
ATOM      5  C   UNL     1      29.321  33.967 -17.796  1.00  0.00     0.174 C 
ATOM      6  C   UNL     1      29.751  32.760 -16.943  1.00  0.00     0.180 C 
ATOM      7  C   UNL     1      31.230  32.403 -17.142  1.00  0.00     0.209 C 
ATOM      8  C   UNL     1      29.731  35.147 -19.994  1.00  0.00     0.041 C 
BRANCH   5   9
ATOM      9  O   UNL     1      29.180  35.125 -16.966  1.00  0.00    -0.388 OA
ATOM     10  H   UNL     1      30.073  35.499 -16.851  1.00  0.00     0.211 HD
ENDBRANCH   5   9
BRANCH   6  11
ATOM     11  O   UNL     1      28.918  31.628 -17.247  1.00  0.00    -0.387 OA
ATOM     12  H   UNL     1      28.404  31.453 -16.429  1.00  0.00     0.211 HD
ENDBRANCH   6  11
BRANCH   7  13
ATOM     13  O   UNL     1      31.459  31.158 -16.442  1.00  0.00    -0.338 OA
BRANCH  13  14
ATOM     14  C   UNL     1      31.757  31.334 -15.054  1.00  0.00     0.282 C 
ATOM     15  O   UNL     1      33.005  30.737 -14.717  1.00  0.00    -0.341 OA
ATOM     16  C   UNL     1      30.618  30.661 -14.263  1.00  0.00     0.202 C 
ATOM     17  C   UNL     1      33.335  30.916 -13.333  1.00  0.00     0.178 C 
ATOM     18  C   UNL     1      30.908  30.740 -12.766  1.00  0.00     0.179 C 
ATOM     19  C   UNL     1      32.301  30.193 -12.454  1.00  0.00     0.177 C 
BRANCH  16  20
ATOM     20  O   UNL     1      29.347  31.280 -14.516  1.00  0.00    -0.385 OA
ATOM     21  H   UNL     1      29.556  32.140 -14.939  1.00  0.00     0.211 HD
ENDBRANCH  16  20
BRANCH  17  22
ATOM     22  C   UNL     1      34.752  30.390 -13.070  1.00  0.00     0.191 C 
BRANCH  22  23
ATOM     23  O   UNL     1      35.491  31.267 -12.222  1.00  0.00    -0.394 OA
ATOM     24  H   UNL     1      35.094  31.192 -11.328  1.00  0.00     0.210 HD
ENDBRANCH  22  23
ENDBRANCH  17  22
BRANCH  18  25
ATOM     25  O   UNL     1      29.931  29.987 -12.028  1.00  0.00    -0.387 OA
ATOM     26  H   UNL     1      30.440  29.272 -11.596  1.00  0.00     0.211 HD
ENDBRANCH  18  25
BRANCH  19  27
ATOM     27  O   UNL     1      32.583  30.370 -11.060  1.00  0.00    -0.387 OA
ATOM     28  H   UNL     1      33.496  30.729 -11.034  1.00  0.00     0.211 HD
ENDBRANCH  19  27
ENDBRANCH  13  14
ENDBRANCH   7  13
ENDBRANCH   1   2
BRANCH   1  29
ATOM     29  C   UNL     1      33.412  33.566 -17.842  1.00  0.00     0.198 C 
BRANCH  29  30
ATOM     30  C   UNL     1      34.553  32.942 -17.022  1.00  0.00     0.180 C 
ATOM     31  O   UNL     1      34.671  31.553 -17.341  1.00  0.00    -0.332 OA
ATOM     32  C   UNL     1      35.902  33.603 -17.346  1.00  0.00     0.177 C 
ATOM     33  C   UNL     1      35.452  30.831 -16.377  1.00  0.00     0.339 C 
ATOM     34  C   UNL     1      37.082  32.727 -16.860  1.00  0.00     0.180 C 
ATOM     35  C   UNL     1      36.654  31.656 -15.841  1.00  0.00     0.214 C 
BRANCH  32  36
ATOM     36  O   UNL     1      35.961  34.901 -16.750  1.00  0.00    -0.387 OA
ATOM     37  H   UNL     1      36.749  35.348 -17.110  1.00  0.00     0.211 HD
ENDBRANCH  32  36
BRANCH  33  38
ATOM     38  O   UNL     1      35.993  29.648 -17.003  1.00  0.00    -0.462 OA
BRANCH  38  39
ATOM     39  C   UNL     1      37.012  29.134 -16.248  1.00  0.00     0.123 A 
ATOM     40  C   UNL     1      37.166  29.525 -14.921  1.00  0.00     0.047 A 
ATOM     41  C   UNL     1      37.860  28.184 -16.812  1.00  0.00     0.047 A 
ATOM     42  C   UNL     1      38.220  29.010 -14.167  1.00  0.00     0.016 A 
ATOM     43  C   UNL     1      38.915  27.668 -16.056  1.00  0.00     0.016 A 
ATOM     44  C   UNL     1      39.118  28.093 -14.734  1.00  0.00     0.021 A 
BRANCH  44  45
ATOM     45  C   UNL     1      40.245  27.563 -13.952  1.00  0.00     0.180 A 
ATOM     46  O   UNL     1      41.271  27.062 -14.740  1.00  0.00    -0.452 OA
ATOM     47  C   UNL     1      40.263  27.589 -12.608  1.00  0.00     0.208 A 
ATOM     48  C   UNL     1      42.374  26.527 -14.122  1.00  0.00     0.146 A 
ATOM     49  C   UNL     1      41.438  27.021 -11.909  1.00  0.00     0.238 A 
ATOM     50  C   UNL     1      43.377  26.020 -14.950  1.00  0.00     0.094 A 
ATOM     51  C   UNL     1      42.517  26.476 -12.736  1.00  0.00     0.111 A 
ATOM     52  O   UNL     1      41.484  27.015 -10.681  1.00  0.00    -0.285 OA
ATOM     53  C   UNL     1      44.518  25.466 -14.374  1.00  0.00     0.123 A 
ATOM     54  C   UNL     1      43.667  25.919 -12.170  1.00  0.00     0.134 A 
ATOM     55  C   UNL     1      44.670  25.413 -12.991  1.00  0.00     0.093 A 
BRANCH  47  56
ATOM     56  O   UNL     1      39.255  28.129 -11.823  1.00  0.00    -0.502 OA
ATOM     57  H   UNL     1      39.623  28.987 -11.511  1.00  0.00     0.293 HD
ENDBRANCH  47  56
BRANCH  53  58
ATOM     58  O   UNL     1      45.524  24.959 -15.142  1.00  0.00    -0.508 OA
ATOM     59  H   UNL     1      46.182  24.531 -14.569  1.00  0.00     0.293 HD
ENDBRANCH  53  58
BRANCH  54  60
ATOM     60  O   UNL     1      43.871  25.840 -10.819  1.00  0.00    -0.507 OA
ATOM     61  H   UNL     1      44.717  25.370 -10.655  1.00  0.00     0.293 HD
ENDBRANCH  54  60
ENDBRANCH  44  45
ENDBRANCH  38  39
ENDBRANCH  33  38
BRANCH  34  62
ATOM     62  O   UNL     1      37.730  32.118 -17.985  1.00  0.00    -0.387 OA
ATOM     63  H   UNL     1      38.538  31.667 -17.664  1.00  0.00     0.211 HD
ENDBRANCH  34  62
BRANCH  35  64
ATOM     64  O   UNL     1      36.294  32.275 -14.594  1.00  0.00    -0.384 OA
ATOM     65  H   UNL     1      36.739  33.141 -14.550  1.00  0.00     0.211 HD
ENDBRANCH  35  64
ENDBRANCH  29  30
ENDBRANCH   1  29
TORSDOF 21
ENDMDL
MODEL 5
REMARK VINA RESULT:    -3.450      2.217     13.324
REMARK INTER + INTRA:          -4.912
REMARK INTER:                  -3.611
REMARK INTRA:                  -1.301
REMARK UNBOUND:                 1.563
REMARK SMILES C[C@@H]1O[C@@H](OC[C@H]2O[C@@H](Oc3ccc(-c4oc5cc(O)cc(O)c5c(=O)c4O)cc3)[C@H](O)[C@@H](O)[C@@H]2O)[C@H](O[C@@H]2O[C@H](CO)[C@@H](O)[C@H](O)[C@H]2O)[C@H](O)[C@H]1O
REMARK SMILES IDX 5 1 4 2 2 3 3 4 52 5 50 6 37 7 1 8 53 9 51 11 38 13 39 14
REMARK SMILES IDX 40 15 48 16 41 17 46 18 44 19 49 20 42 22 43 23 47 25 45 27
REMARK SMILES IDX 6 29 7 30 8 31 35 32 9 33 33 34 31 35 36 36 10 38 11 39
REMARK SMILES IDX 12 40 30 41 13 42 29 43 14 44 15 45 16 46 27 47 17 48 25 49
REMARK SMILES IDX 18 50 24 51 26 52 19 53 22 54 21 55 28 56 20 58 23 60 34 62
REMARK SMILES IDX 32 64
REMARK H PARENT 53 10 51 12 49 21 43 24 47 26 45 28 36 37 28 57 20 59 23 61
REMARK H PARENT 34 63 32 65
ROOT
ATOM      1  O   UNL     1      45.211  27.585 -13.044  1.00  0.00    -0.347 OA
ENDROOT
BRANCH   1   2
ATOM      2  C   UNL     1      45.813  26.899 -14.148  1.00  0.00     0.282 C 
ATOM      3  C   UNL     1      45.729  24.603 -13.542  1.00  0.00     0.150 C 
ATOM      4  O   UNL     1      45.148  25.643 -14.327  1.00  0.00    -0.344 OA
ATOM      5  C   UNL     1      47.108  24.239 -14.120  1.00  0.00     0.174 C 
ATOM      6  C   UNL     1      47.911  25.495 -14.503  1.00  0.00     0.180 C 
ATOM      7  C   UNL     1      47.336  26.770 -13.873  1.00  0.00     0.209 C 
ATOM      8  C   UNL     1      44.785  23.407 -13.568  1.00  0.00     0.041 C 
BRANCH   5   9
ATOM      9  O   UNL     1      47.835  23.472 -13.153  1.00  0.00    -0.388 OA
ATOM     10  H   UNL     1      48.402  22.856 -13.653  1.00  0.00     0.211 HD
ENDBRANCH   5   9
BRANCH   6  11
ATOM     11  O   UNL     1      47.961  25.623 -15.934  1.00  0.00    -0.387 OA
ATOM     12  H   UNL     1      48.251  24.746 -16.267  1.00  0.00     0.211 HD
ENDBRANCH   6  11
BRANCH   7  13
ATOM     13  O   UNL     1      48.053  27.885 -14.452  1.00  0.00    -0.338 OA
BRANCH  13  14
ATOM     14  C   UNL     1      49.469  27.687 -14.496  1.00  0.00     0.282 C 
ATOM     15  O   UNL     1      50.110  28.313 -13.389  1.00  0.00    -0.341 OA
ATOM     16  C   UNL     1      49.968  28.309 -15.815  1.00  0.00     0.202 C 
ATOM     17  C   UNL     1      51.529  28.113 -13.400  1.00  0.00     0.178 C 
ATOM     18  C   UNL     1      51.488  28.205 -15.897  1.00  0.00     0.179 C 
ATOM     19  C   UNL     1      52.140  28.786 -14.641  1.00  0.00     0.177 C 
BRANCH  16  20
ATOM     20  O   UNL     1      49.403  27.658 -16.964  1.00  0.00    -0.385 OA
ATOM     21  H   UNL     1      48.757  27.012 -16.606  1.00  0.00     0.211 HD
ENDBRANCH  16  20
BRANCH  17  22
ATOM     22  C   UNL     1      52.139  28.674 -12.109  1.00  0.00     0.191 C 
BRANCH  22  23
ATOM     23  O   UNL     1      53.133  29.660 -12.380  1.00  0.00    -0.394 OA
ATOM     24  H   UNL     1      53.759  29.642 -11.625  1.00  0.00     0.210 HD
ENDBRANCH  22  23
ENDBRANCH  17  22
BRANCH  18  25
ATOM     25  O   UNL     1      51.975  28.912 -17.050  1.00  0.00    -0.387 OA
ATOM     26  H   UNL     1      51.325  29.629 -17.197  1.00  0.00     0.211 HD
ENDBRANCH  18  25
BRANCH  19  27
ATOM     27  O   UNL     1      53.557  28.586 -14.702  1.00  0.00    -0.387 OA
ATOM     28  H   UNL     1      53.900  28.976 -13.871  1.00  0.00     0.211 HD
ENDBRANCH  19  27
ENDBRANCH  13  14
ENDBRANCH   7  13
ENDBRANCH   1   2
BRANCH   1  29
ATOM     29  C   UNL     1      44.145  28.461 -13.433  1.00  0.00     0.198 C 
BRANCH  29  30
ATOM     30  C   UNL     1      42.782  27.857 -13.056  1.00  0.00     0.180 C 
ATOM     31  O   UNL     1      41.909  27.898 -14.187  1.00  0.00    -0.332 OA
ATOM     32  C   UNL     1      42.919  26.386 -12.634  1.00  0.00     0.177 C 
ATOM     33  C   UNL     1      40.534  27.693 -13.829  1.00  0.00     0.339 C 
ATOM     34  C   UNL     1      41.548  25.669 -12.662  1.00  0.00     0.180 C 
ATOM     35  C   UNL     1      40.360  26.648 -12.692  1.00  0.00     0.214 C 
BRANCH  32  36
ATOM     36  O   UNL     1      43.501  26.308 -11.330  1.00  0.00    -0.387 OA
ATOM     37  H   UNL     1      44.177  27.007 -11.273  1.00  0.00     0.211 HD
ENDBRANCH  32  36
BRANCH  33  38
ATOM     38  O   UNL     1      39.819  27.195 -14.979  1.00  0.00    -0.462 OA
BRANCH  38  39
ATOM     39  C   UNL     1      38.823  28.065 -15.334  1.00  0.00     0.123 A 
ATOM     40  C   UNL     1      38.140  27.891 -16.534  1.00  0.00     0.047 A 
ATOM     41  C   UNL     1      38.476  29.091 -14.460  1.00  0.00     0.047 A 
ATOM     42  C   UNL     1      37.141  28.794 -16.896  1.00  0.00     0.016 A 
ATOM     43  C   UNL     1      37.474  29.994 -14.823  1.00  0.00     0.016 A 
ATOM     44  C   UNL     1      36.813  29.867 -16.054  1.00  0.00     0.021 A 
BRANCH  44  45
ATOM     45  C   UNL     1      35.777  30.837 -16.440  1.00  0.00     0.180 A 
ATOM     46  O   UNL     1      34.506  30.482 -16.009  1.00  0.00    -0.452 OA
ATOM     47  C   UNL     1      36.061  31.956 -17.128  1.00  0.00     0.208 A 
ATOM     48  C   UNL     1      33.452  31.305 -16.322  1.00  0.00     0.146 A 
ATOM     49  C   UNL     1      34.948  32.866 -17.481  1.00  0.00     0.238 A 
ATOM     50  C   UNL     1      32.189  30.905 -15.884  1.00  0.00     0.094 A 
ATOM     51  C   UNL     1      33.602  32.489 -17.042  1.00  0.00     0.111 A 
ATOM     52  O   UNL     1      35.166  33.893 -18.120  1.00  0.00    -0.285 OA
ATOM     53  C   UNL     1      31.085  31.703 -16.173  1.00  0.00     0.123 A 
ATOM     54  C   UNL     1      32.487  33.282 -17.326  1.00  0.00     0.134 A 
ATOM     55  C   UNL     1      31.225  32.889 -16.890  1.00  0.00     0.093 A 
BRANCH  47  56
ATOM     56  O   UNL     1      37.337  32.329 -17.521  1.00  0.00    -0.502 OA
ATOM     57  H   UNL     1      37.428  31.965 -18.431  1.00  0.00     0.293 HD
ENDBRANCH  47  56
BRANCH  53  58
ATOM     58  O   UNL     1      29.832  31.355 -15.766  1.00  0.00    -0.508 OA
ATOM     59  H   UNL     1      29.195  32.019 -16.076  1.00  0.00     0.293 HD
ENDBRANCH  53  58
BRANCH  54  60
ATOM     60  O   UNL     1      32.565  34.456 -18.026  1.00  0.00    -0.507 OA
ATOM     61  H   UNL     1      32.939  34.269 -18.914  1.00  0.00     0.293 HD
ENDBRANCH  54  60
ENDBRANCH  44  45
ENDBRANCH  38  39
ENDBRANCH  33  38
BRANCH  34  62
ATOM     62  O   UNL     1      41.490  24.775 -13.781  1.00  0.00    -0.387 OA
ATOM     63  H   UNL     1      41.509  25.309 -14.600  1.00  0.00     0.211 HD
ENDBRANCH  34  62
BRANCH  35  64
ATOM     64  O   UNL     1      40.244  27.326 -11.430  1.00  0.00    -0.384 OA
ATOM     65  H   UNL     1      40.965  27.012 -10.855  1.00  0.00     0.211 HD
ENDBRANCH  35  64
ENDBRANCH  29  30
ENDBRANCH   1  29
TORSDOF 21
ENDMDL
MODEL 6
REMARK VINA RESULT:    -2.421      5.064      9.744
REMARK INTER + INTRA:          -2.980
REMARK INTER:                  -5.421
REMARK INTRA:                   2.441
REMARK UNBOUND:                 1.563
REMARK SMILES C[C@@H]1O[C@@H](OC[C@H]2O[C@@H](Oc3ccc(-c4oc5cc(O)cc(O)c5c(=O)c4O)cc3)[C@H](O)[C@@H](O)[C@@H]2O)[C@H](O[C@@H]2O[C@H](CO)[C@@H](O)[C@H](O)[C@H]2O)[C@H](O)[C@H]1O
REMARK SMILES IDX 5 1 4 2 2 3 3 4 52 5 50 6 37 7 1 8 53 9 51 11 38 13 39 14
REMARK SMILES IDX 40 15 48 16 41 17 46 18 44 19 49 20 42 22 43 23 47 25 45 27
REMARK SMILES IDX 6 29 7 30 8 31 35 32 9 33 33 34 31 35 36 36 10 38 11 39
REMARK SMILES IDX 12 40 30 41 13 42 29 43 14 44 15 45 16 46 27 47 17 48 25 49
REMARK SMILES IDX 18 50 24 51 26 52 19 53 22 54 21 55 28 56 20 58 23 60 34 62
REMARK SMILES IDX 32 64
REMARK H PARENT 53 10 51 12 49 21 43 24 47 26 45 28 36 37 28 57 20 59 23 61
REMARK H PARENT 34 63 32 65
ROOT
ATOM      1  O   UNL     1      33.113  32.842 -18.800  1.00  0.00    -0.347 OA
ENDROOT
BRANCH   1   2
ATOM      2  C   UNL     1      31.759  32.406 -18.630  1.00  0.00     0.282 C 
ATOM      3  C   UNL     1      30.463  34.385 -18.841  1.00  0.00     0.150 C 
ATOM      4  O   UNL     1      30.913  33.191 -19.478  1.00  0.00    -0.344 OA
ATOM      5  C   UNL     1      29.448  34.025 -17.742  1.00  0.00     0.174 C 
ATOM      6  C   UNL     1      29.910  32.807 -16.921  1.00  0.00     0.180 C 
ATOM      7  C   UNL     1      31.400  32.499 -17.122  1.00  0.00     0.209 C 
ATOM      8  C   UNL     1      29.834  35.280 -19.903  1.00  0.00     0.041 C 
BRANCH   5   9
ATOM      9  O   UNL     1      29.269  35.154 -16.879  1.00  0.00    -0.388 OA
ATOM     10  H   UNL     1      28.310  35.241 -16.726  1.00  0.00     0.211 HD
ENDBRANCH   5   9
BRANCH   6  11
ATOM     11  O   UNL     1      29.112  31.660 -17.262  1.00  0.00    -0.387 OA
ATOM     12  H   UNL     1      29.747  30.986 -17.586  1.00  0.00     0.211 HD
ENDBRANCH   6  11
BRANCH   7  13
ATOM     13  O   UNL     1      31.663  31.242 -16.457  1.00  0.00    -0.338 OA
BRANCH  13  14
ATOM     14  C   UNL     1      31.813  31.370 -15.040  1.00  0.00     0.282 C 
ATOM     15  O   UNL     1      33.123  30.996 -14.627  1.00  0.00    -0.341 OA
ATOM     16  C   UNL     1      30.769  30.440 -14.393  1.00  0.00     0.202 C 
ATOM     17  C   UNL     1      33.306  31.134 -13.212  1.00  0.00     0.178 C 
ATOM     18  C   UNL     1      30.921  30.464 -12.874  1.00  0.00     0.179 C 
ATOM     19  C   UNL     1      32.367  30.168 -12.470  1.00  0.00     0.177 C 
BRANCH  16  20
ATOM     20  O   UNL     1      29.425  30.826 -14.723  1.00  0.00    -0.385 OA
ATOM     21  H   UNL     1      29.405  31.803 -14.631  1.00  0.00     0.211 HD
ENDBRANCH  16  20
BRANCH  17  22
ATOM     22  C   UNL     1      34.773  30.866 -12.853  1.00  0.00     0.191 C 
BRANCH  22  23
ATOM     23  O   UNL     1      35.413  32.034 -12.346  1.00  0.00    -0.394 OA
ATOM     24  H   UNL     1      34.869  32.348 -11.592  1.00  0.00     0.210 HD
ENDBRANCH  22  23
ENDBRANCH  17  22
BRANCH  18  25
ATOM     25  O   UNL     1      30.055  29.490 -12.270  1.00  0.00    -0.387 OA
ATOM     26  H   UNL     1      29.747  29.908 -11.440  1.00  0.00     0.211 HD
ENDBRANCH  18  25
BRANCH  19  27
ATOM     27  O   UNL     1      32.501  30.294 -11.049  1.00  0.00    -0.387 OA
ATOM     28  H   UNL     1      32.108  31.168 -10.838  1.00  0.00     0.211 HD
ENDBRANCH  19  27
ENDBRANCH  13  14
ENDBRANCH   7  13
ENDBRANCH   1   2
BRANCH   1  29
ATOM     29  C   UNL     1      33.657  33.471 -17.632  1.00  0.00     0.198 C 
BRANCH  29  30
ATOM     30  C   UNL     1      34.691  32.555 -16.955  1.00  0.00     0.180 C 
ATOM     31  O   UNL     1      34.647  31.257 -17.553  1.00  0.00    -0.332 OA
ATOM     32  C   UNL     1      36.118  33.095 -17.134  1.00  0.00     0.177 C 
ATOM     33  C   UNL     1      35.308  30.262 -16.757  1.00  0.00     0.339 C 
ATOM     34  C   UNL     1      37.169  31.999 -16.837  1.00  0.00     0.180 C 
ATOM     35  C   UNL     1      36.587  30.805 -16.060  1.00  0.00     0.214 C 
BRANCH  32  36
ATOM     36  O   UNL     1      36.318  34.227 -16.284  1.00  0.00    -0.387 OA
ATOM     37  H   UNL     1      35.485  34.732 -16.275  1.00  0.00     0.211 HD
ENDBRANCH  32  36
BRANCH  33  38
ATOM     38  O   UNL     1      35.718  29.174 -17.611  1.00  0.00    -0.462 OA
BRANCH  38  39
ATOM     39  C   UNL     1      36.853  28.586 -17.122  1.00  0.00     0.123 A 
ATOM     40  C   UNL     1      37.120  28.609 -15.756  1.00  0.00     0.047 A 
ATOM     41  C   UNL     1      37.708  27.927 -18.002  1.00  0.00     0.047 A 
ATOM     42  C   UNL     1      38.289  28.024 -15.271  1.00  0.00     0.016 A 
ATOM     43  C   UNL     1      38.878  27.341 -17.515  1.00  0.00     0.016 A 
ATOM     44  C   UNL     1      39.190  27.403 -16.148  1.00  0.00     0.021 A 
BRANCH  44  45
ATOM     45  C   UNL     1      40.437  26.805 -15.647  1.00  0.00     0.180 A 
ATOM     46  O   UNL     1      40.715  27.141 -14.330  1.00  0.00    -0.452 OA
ATOM     47  C   UNL     1      41.204  26.002 -16.405  1.00  0.00     0.208 A 
ATOM     48  C   UNL     1      41.862  26.652 -13.754  1.00  0.00     0.146 A 
ATOM     49  C   UNL     1      42.448  25.457 -15.816  1.00  0.00     0.238 A 
ATOM     50  C   UNL     1      42.114  27.025 -12.434  1.00  0.00     0.094 A 
ATOM     51  C   UNL     1      42.754  25.821 -14.430  1.00  0.00     0.111 A 
ATOM     52  O   UNL     1      43.181  24.729 -16.481  1.00  0.00    -0.285 OA
ATOM     53  C   UNL     1      43.263  26.557 -11.802  1.00  0.00     0.123 A 
ATOM     54  C   UNL     1      43.904  25.356 -13.786  1.00  0.00     0.134 A 
ATOM     55  C   UNL     1      44.160  25.724 -12.468  1.00  0.00     0.093 A 
BRANCH  47  56
ATOM     56  O   UNL     1      40.901  25.634 -17.707  1.00  0.00    -0.502 OA
ATOM     57  H   UNL     1      41.597  24.978 -17.942  1.00  0.00     0.293 HD
ENDBRANCH  47  56
BRANCH  53  58
ATOM     58  O   UNL     1      43.552  26.894 -10.513  1.00  0.00    -0.508 OA
ATOM     59  H   UNL     1      43.151  26.245  -9.912  1.00  0.00     0.293 HD
ENDBRANCH  53  58
BRANCH  54  60
ATOM     60  O   UNL     1      44.819  24.537 -14.390  1.00  0.00    -0.507 OA
ATOM     61  H   UNL     1      45.005  23.778 -13.795  1.00  0.00     0.293 HD
ENDBRANCH  54  60
ENDBRANCH  44  45
ENDBRANCH  38  39
ENDBRANCH  33  38
BRANCH  34  62
ATOM     62  O   UNL     1      37.769  31.556 -18.062  1.00  0.00    -0.387 OA
ATOM     63  H   UNL     1      38.140  32.336 -18.520  1.00  0.00     0.211 HD
ENDBRANCH  34  62
BRANCH  35  64
ATOM     64  O   UNL     1      36.271  31.197 -14.714  1.00  0.00    -0.384 OA
ATOM     65  H   UNL     1      35.606  31.908 -14.757  1.00  0.00     0.211 HD
ENDBRANCH  35  64
ENDBRANCH  29  30
ENDBRANCH   1  29
TORSDOF 21
ENDMDL
MODEL 7
REMARK VINA RESULT:    -2.402      5.282     10.888
REMARK INTER + INTRA:          -2.945
REMARK INTER:                  -3.707
REMARK INTRA:                   0.762
REMARK UNBOUND:                 1.563
REMARK SMILES C[C@@H]1O[C@@H](OC[C@H]2O[C@@H](Oc3ccc(-c4oc5cc(O)cc(O)c5c(=O)c4O)cc3)[C@H](O)[C@@H](O)[C@@H]2O)[C@H](O[C@@H]2O[C@H](CO)[C@@H](O)[C@H](O)[C@H]2O)[C@H](O)[C@H]1O
REMARK SMILES IDX 5 1 4 2 2 3 3 4 52 5 50 6 37 7 1 8 53 9 51 11 38 13 39 14
REMARK SMILES IDX 40 15 48 16 41 17 46 18 44 19 49 20 42 22 43 23 47 25 45 27
REMARK SMILES IDX 6 29 7 30 8 31 35 32 9 33 33 34 31 35 36 36 10 38 11 39
REMARK SMILES IDX 12 40 30 41 13 42 29 43 14 44 15 45 16 46 27 47 17 48 25 49
REMARK SMILES IDX 18 50 24 51 26 52 19 53 22 54 21 55 28 56 20 58 23 60 34 62
REMARK SMILES IDX 32 64
REMARK H PARENT 53 10 51 12 49 21 43 24 47 26 45 28 36 37 28 57 20 59 23 61
REMARK H PARENT 34 63 32 65
ROOT
ATOM      1  O   UNL     1      30.626  30.648 -16.556  1.00  0.00    -0.347 OA
ENDROOT
BRANCH   1   2
ATOM      2  C   UNL     1      30.866  31.631 -17.568  1.00  0.00     0.282 C 
ATOM      3  C   UNL     1      33.202  32.046 -17.455  1.00  0.00     0.150 C 
ATOM      4  O   UNL     1      32.150  31.384 -18.154  1.00  0.00    -0.344 OA
ATOM      5  C   UNL     1      33.104  33.561 -17.702  1.00  0.00     0.174 C 
ATOM      6  C   UNL     1      31.649  34.057 -17.611  1.00  0.00     0.180 C 
ATOM      7  C   UNL     1      30.728  33.039 -16.927  1.00  0.00     0.209 C 
ATOM      8  C   UNL     1      34.529  31.489 -17.959  1.00  0.00     0.041 C 
BRANCH   5   9
ATOM      9  O   UNL     1      33.914  34.248 -16.741  1.00  0.00    -0.388 OA
ATOM     10  H   UNL     1      34.396  33.565 -16.240  1.00  0.00     0.211 HD
ENDBRANCH   5   9
BRANCH   6  11
ATOM     11  O   UNL     1      31.159  34.371 -18.926  1.00  0.00    -0.387 OA
ATOM     12  H   UNL     1      30.532  33.651 -19.151  1.00  0.00     0.211 HD
ENDBRANCH   6  11
BRANCH   7  13
ATOM     13  O   UNL     1      29.376  33.533 -17.070  1.00  0.00    -0.338 OA
BRANCH  13  14
ATOM     14  C   UNL     1      29.242  34.535 -18.083  1.00  0.00     0.282 C 
ATOM     15  O   UNL     1      28.604  35.700 -17.571  1.00  0.00    -0.341 OA
ATOM     16  C   UNL     1      28.393  33.920 -19.212  1.00  0.00     0.202 C 
ATOM     17  C   UNL     1      28.475  36.728 -18.562  1.00  0.00     0.178 C 
ATOM     18  C   UNL     1      28.141  34.962 -20.299  1.00  0.00     0.179 C 
ATOM     19  C   UNL     1      27.559  36.242 -19.698  1.00  0.00     0.177 C 
BRANCH  16  20
ATOM     20  O   UNL     1      29.034  32.783 -19.810  1.00  0.00    -0.385 OA
ATOM     21  H   UNL     1      29.401  32.266 -19.060  1.00  0.00     0.211 HD
ENDBRANCH  16  20
BRANCH  17  22
ATOM     22  C   UNL     1      27.925  38.004 -17.912  1.00  0.00     0.191 C 
BRANCH  22  23
ATOM     23  O   UNL     1      26.518  37.923 -17.699  1.00  0.00    -0.394 OA
ATOM     24  H   UNL     1      26.171  38.838 -17.762  1.00  0.00     0.210 HD
ENDBRANCH  22  23
ENDBRANCH  17  22
BRANCH  18  25
ATOM     25  O   UNL     1      27.228  34.447 -21.282  1.00  0.00    -0.387 OA
ATOM     26  H   UNL     1      26.520  34.012 -20.763  1.00  0.00     0.211 HD
ENDBRANCH  18  25
BRANCH  19  27
ATOM     27  O   UNL     1      27.425  37.234 -20.723  1.00  0.00    -0.387 OA
ATOM     28  H   UNL     1      26.597  36.997 -21.193  1.00  0.00     0.211 HD
ENDBRANCH  19  27
ENDBRANCH  13  14
ENDBRANCH   7  13
ENDBRANCH   1   2
BRANCH   1  29
ATOM     29  C   UNL     1      30.469  31.208 -15.246  1.00  0.00     0.198 C 
BRANCH  29  30
ATOM     30  C   UNL     1      31.404  30.511 -14.243  1.00  0.00     0.180 C 
ATOM     31  O   UNL     1      32.739  30.992 -14.416  1.00  0.00    -0.332 OA
ATOM     32  C   UNL     1      30.992  30.811 -12.793  1.00  0.00     0.177 C 
ATOM     33  C   UNL     1      33.714  30.149 -13.782  1.00  0.00     0.339 C 
ATOM     34  C   UNL     1      32.138  30.477 -11.809  1.00  0.00     0.180 C 
ATOM     35  C   UNL     1      33.217  29.571 -12.429  1.00  0.00     0.214 C 
BRANCH  32  36
ATOM     36  O   UNL     1      29.813  30.074 -12.461  1.00  0.00    -0.387 OA
ATOM     37  H   UNL     1      29.312  30.606 -11.817  1.00  0.00     0.211 HD
ENDBRANCH  32  36
BRANCH  33  38
ATOM     38  O   UNL     1      34.897  30.927 -13.504  1.00  0.00    -0.462 OA
BRANCH  38  39
ATOM     39  C   UNL     1      36.022  30.191 -13.761  1.00  0.00     0.123 A 
ATOM     40  C   UNL     1      36.205  29.606 -15.010  1.00  0.00     0.047 A 
ATOM     41  C   UNL     1      36.997  30.078 -12.773  1.00  0.00     0.047 A 
ATOM     42  C   UNL     1      37.345  28.842 -15.254  1.00  0.00     0.016 A 
ATOM     43  C   UNL     1      38.139  29.313 -13.019  1.00  0.00     0.016 A 
ATOM     44  C   UNL     1      38.313  28.670 -14.254  1.00  0.00     0.021 A 
BRANCH  44  45
ATOM     45  C   UNL     1      39.508  27.846 -14.497  1.00  0.00     0.180 A 
ATOM     46  O   UNL     1      40.393  27.836 -13.428  1.00  0.00    -0.452 OA
ATOM     47  C   UNL     1      39.692  27.168 -15.643  1.00  0.00     0.208 A 
ATOM     48  C   UNL     1      41.554  27.112 -13.543  1.00  0.00     0.146 A 
ATOM     49  C   UNL     1      40.932  26.375 -15.799  1.00  0.00     0.238 A 
ATOM     50  C   UNL     1      42.424  27.139 -12.453  1.00  0.00     0.094 A 
ATOM     51  C   UNL     1      41.877  26.374 -14.680  1.00  0.00     0.111 A 
ATOM     52  O   UNL     1      41.142  25.752 -16.837  1.00  0.00    -0.285 OA
ATOM     53  C   UNL     1      43.615  26.421 -12.515  1.00  0.00     0.123 A 
ATOM     54  C   UNL     1      43.076  25.655 -14.731  1.00  0.00     0.134 A 
ATOM     55  C   UNL     1      43.947  25.679 -13.647  1.00  0.00     0.093 A 
BRANCH  47  56
ATOM     56  O   UNL     1      38.786  27.146 -16.692  1.00  0.00    -0.502 OA
ATOM     57  H   UNL     1      39.293  27.500 -17.459  1.00  0.00     0.293 HD
ENDBRANCH  47  56
BRANCH  53  58
ATOM     58  O   UNL     1      44.497  26.417 -11.476  1.00  0.00    -0.508 OA
ATOM     59  H   UNL     1      44.206  25.776 -10.807  1.00  0.00     0.293 HD
ENDBRANCH  53  58
BRANCH  54  60
ATOM     60  O   UNL     1      43.454  24.910 -15.816  1.00  0.00    -0.507 OA
ATOM     61  H   UNL     1      43.095  25.330 -16.627  1.00  0.00     0.293 HD
ENDBRANCH  54  60
ENDBRANCH  44  45
ENDBRANCH  38  39
ENDBRANCH  33  38
BRANCH  34  62
ATOM     62  O   UNL     1      32.725  31.689 -11.316  1.00  0.00    -0.387 OA
ATOM     63  H   UNL     1      32.003  32.287 -11.036  1.00  0.00     0.211 HD
ENDBRANCH  34  62
BRANCH  35  64
ATOM     64  O   UNL     1      32.693  28.248 -12.636  1.00  0.00    -0.384 OA
ATOM     65  H   UNL     1      33.419  27.686 -12.962  1.00  0.00     0.211 HD
ENDBRANCH  35  64
ENDBRANCH  29  30
ENDBRANCH   1  29
TORSDOF 21
ENDMDL
MODEL 8
REMARK VINA RESULT:    -2.315      5.266     10.521
REMARK INTER + INTRA:          -2.783
REMARK INTER:                  -1.235
REMARK INTRA:                  -1.548
REMARK UNBOUND:                 1.563
REMARK SMILES C[C@@H]1O[C@@H](OC[C@H]2O[C@@H](Oc3ccc(-c4oc5cc(O)cc(O)c5c(=O)c4O)cc3)[C@H](O)[C@@H](O)[C@@H]2O)[C@H](O[C@@H]2O[C@H](CO)[C@@H](O)[C@H](O)[C@H]2O)[C@H](O)[C@H]1O
REMARK SMILES IDX 5 1 4 2 2 3 3 4 52 5 50 6 37 7 1 8 53 9 51 11 38 13 39 14
REMARK SMILES IDX 40 15 48 16 41 17 46 18 44 19 49 20 42 22 43 23 47 25 45 27
REMARK SMILES IDX 6 29 7 30 8 31 35 32 9 33 33 34 31 35 36 36 10 38 11 39
REMARK SMILES IDX 12 40 30 41 13 42 29 43 14 44 15 45 16 46 27 47 17 48 25 49
REMARK SMILES IDX 18 50 24 51 26 52 19 53 22 54 21 55 28 56 20 58 23 60 34 62
REMARK SMILES IDX 32 64
REMARK H PARENT 53 10 51 12 49 21 43 24 47 26 45 28 36 37 28 57 20 59 23 61
REMARK H PARENT 34 63 32 65
ROOT
ATOM      1  O   UNL     1      30.122  31.498 -15.998  1.00  0.00    -0.347 OA
ENDROOT
BRANCH   1   2
ATOM      2  C   UNL     1      30.591  32.800 -16.368  1.00  0.00     0.282 C 
ATOM      3  C   UNL     1      29.441  33.297 -18.386  1.00  0.00     0.150 C 
ATOM      4  O   UNL     1      29.514  33.520 -16.980  1.00  0.00    -0.344 OA
ATOM      5  C   UNL     1      30.628  33.992 -19.075  1.00  0.00     0.174 C 
ATOM      6  C   UNL     1      31.940  33.776 -18.299  1.00  0.00     0.180 C 
ATOM      7  C   UNL     1      31.834  32.631 -17.284  1.00  0.00     0.209 C 
ATOM      8  C   UNL     1      28.111  33.850 -18.885  1.00  0.00     0.041 C 
BRANCH   5   9
ATOM      9  O   UNL     1      30.761  33.485 -20.408  1.00  0.00    -0.388 OA
ATOM     10  H   UNL     1      30.083  33.933 -20.948  1.00  0.00     0.211 HD
ENDBRANCH   5   9
BRANCH   6  11
ATOM     11  O   UNL     1      32.322  34.995 -17.641  1.00  0.00    -0.387 OA
ATOM     12  H   UNL     1      33.304  34.998 -17.642  1.00  0.00     0.211 HD
ENDBRANCH   6  11
BRANCH   7  13
ATOM     13  O   UNL     1      33.050  32.651 -16.500  1.00  0.00    -0.338 OA
BRANCH  13  14
ATOM     14  C   UNL     1      34.202  32.217 -17.229  1.00  0.00     0.282 C 
ATOM     15  O   UNL     1      34.179  30.808 -17.435  1.00  0.00    -0.341 OA
ATOM     16  C   UNL     1      35.435  32.608 -16.392  1.00  0.00     0.202 C 
ATOM     17  C   UNL     1      35.314  30.350 -18.180  1.00  0.00     0.178 C 
ATOM     18  C   UNL     1      36.706  32.106 -17.072  1.00  0.00     0.179 C 
ATOM     19  C   UNL     1      36.601  30.611 -17.380  1.00  0.00     0.177 C 
BRANCH  16  20
ATOM     20  O   UNL     1      35.541  34.030 -16.220  1.00  0.00    -0.385 OA
ATOM     21  H   UNL     1      35.069  34.227 -15.383  1.00  0.00     0.211 HD
ENDBRANCH  16  20
BRANCH  17  22
ATOM     22  C   UNL     1      35.153  28.858 -18.501  1.00  0.00     0.191 C 
BRANCH  22  23
ATOM     23  O   UNL     1      34.405  28.654 -19.697  1.00  0.00    -0.394 OA
ATOM     24  H   UNL     1      34.327  29.530 -20.132  1.00  0.00     0.210 HD
ENDBRANCH  22  23
ENDBRANCH  17  22
BRANCH  18  25
ATOM     25  O   UNL     1      37.847  32.333 -16.229  1.00  0.00    -0.387 OA
ATOM     26  H   UNL     1      37.475  32.674 -15.390  1.00  0.00     0.211 HD
ENDBRANCH  18  25
BRANCH  19  27
ATOM     27  O   UNL     1      37.763  30.190 -18.104  1.00  0.00    -0.387 OA
ATOM     28  H   UNL     1      37.412  29.690 -18.872  1.00  0.00     0.211 HD
ENDBRANCH  19  27
ENDBRANCH  13  14
ENDBRANCH   7  13
ENDBRANCH   1   2
BRANCH   1  29
ATOM     29  C   UNL     1      29.799  31.387 -14.606  1.00  0.00     0.198 C 
BRANCH  29  30
ATOM     30  C   UNL     1      30.872  30.572 -13.863  1.00  0.00     0.180 C 
ATOM     31  O   UNL     1      32.158  31.157 -14.085  1.00  0.00    -0.332 OA
ATOM     32  C   UNL     1      30.623  30.571 -12.347  1.00  0.00     0.177 C 
ATOM     33  C   UNL     1      33.232  30.272 -13.736  1.00  0.00     0.339 C 
ATOM     34  C   UNL     1      31.890  30.129 -11.576  1.00  0.00     0.180 C 
ATOM     35  C   UNL     1      32.922  29.422 -12.473  1.00  0.00     0.214 C 
BRANCH  32  36
ATOM     36  O   UNL     1      29.522  29.714 -12.037  1.00  0.00    -0.387 OA
ATOM     37  H   UNL     1      29.852  28.798 -12.070  1.00  0.00     0.211 HD
ENDBRANCH  32  36
BRANCH  33  38
ATOM     38  O   UNL     1      34.409  31.054 -13.444  1.00  0.00    -0.462 OA
BRANCH  38  39
ATOM     39  C   UNL     1      35.540  30.333 -13.715  1.00  0.00     0.123 A 
ATOM     40  C   UNL     1      35.572  29.464 -14.801  1.00  0.00     0.047 A 
ATOM     41  C   UNL     1      36.667  30.517 -12.918  1.00  0.00     0.047 A 
ATOM     42  C   UNL     1      36.723  28.720 -15.057  1.00  0.00     0.016 A 
ATOM     43  C   UNL     1      37.820  29.771 -13.175  1.00  0.00     0.016 A 
ATOM     44  C   UNL     1      37.851  28.850 -14.234  1.00  0.00     0.021 A 
BRANCH  44  45
ATOM     45  C   UNL     1      39.060  28.050 -14.483  1.00  0.00     0.180 A 
ATOM     46  O   UNL     1      39.901  27.970 -13.382  1.00  0.00    -0.452 OA
ATOM     47  C   UNL     1      39.296  27.454 -15.664  1.00  0.00     0.208 A 
ATOM     48  C   UNL     1      41.071  27.261 -13.497  1.00  0.00     0.146 A 
ATOM     49  C   UNL     1      40.548  26.680 -15.823  1.00  0.00     0.238 A 
ATOM     50  C   UNL     1      41.896  27.217 -12.373  1.00  0.00     0.094 A 
ATOM     51  C   UNL     1      41.446  26.605 -14.669  1.00  0.00     0.111 A 
ATOM     52  O   UNL     1      40.804  26.131 -16.892  1.00  0.00    -0.285 OA
ATOM     53  C   UNL     1      43.094  26.510 -12.436  1.00  0.00     0.123 A 
ATOM     54  C   UNL     1      42.651  25.897 -14.720  1.00  0.00     0.134 A 
ATOM     55  C   UNL     1      43.477  25.850 -13.601  1.00  0.00     0.093 A 
BRANCH  47  56
ATOM     56  O   UNL     1      38.434  27.500 -16.749  1.00  0.00    -0.502 OA
ATOM     57  H   UNL     1      37.774  26.793 -16.567  1.00  0.00     0.293 HD
ENDBRANCH  47  56
BRANCH  53  58
ATOM     58  O   UNL     1      43.932  26.438 -11.363  1.00  0.00    -0.508 OA
ATOM     59  H   UNL     1      44.853  26.433 -11.673  1.00  0.00     0.293 HD
ENDBRANCH  53  58
BRANCH  54  60
ATOM     60  O   UNL     1      43.079  25.231 -15.836  1.00  0.00    -0.507 OA
ATOM     61  H   UNL     1      44.060  25.248 -15.858  1.00  0.00     0.293 HD
ENDBRANCH  54  60
ENDBRANCH  44  45
ENDBRANCH  38  39
ENDBRANCH  33  38
BRANCH  34  62
ATOM     62  O   UNL     1      32.484  31.262 -10.927  1.00  0.00    -0.387 OA
ATOM     63  H   UNL     1      32.545  31.067  -9.969  1.00  0.00     0.211 HD
ENDBRANCH  34  62
BRANCH  35  64
ATOM     64  O   UNL     1      32.429  28.132 -12.872  1.00  0.00    -0.384 OA
ATOM     65  H   UNL     1      31.457  28.182 -12.912  1.00  0.00     0.211 HD
ENDBRANCH  35  64
ENDBRANCH  29  30
ENDBRANCH   1  29
TORSDOF 21
ENDMDL
MODEL 9
REMARK VINA RESULT:    -2.292      4.216      8.900
REMARK INTER + INTRA:          -2.739
REMARK INTER:                  -5.888
REMARK INTRA:                   3.149
REMARK UNBOUND:                 1.563
REMARK SMILES C[C@@H]1O[C@@H](OC[C@H]2O[C@@H](Oc3ccc(-c4oc5cc(O)cc(O)c5c(=O)c4O)cc3)[C@H](O)[C@@H](O)[C@@H]2O)[C@H](O[C@@H]2O[C@H](CO)[C@@H](O)[C@H](O)[C@H]2O)[C@H](O)[C@H]1O
REMARK SMILES IDX 5 1 4 2 2 3 3 4 52 5 50 6 37 7 1 8 53 9 51 11 38 13 39 14
REMARK SMILES IDX 40 15 48 16 41 17 46 18 44 19 49 20 42 22 43 23 47 25 45 27
REMARK SMILES IDX 6 29 7 30 8 31 35 32 9 33 33 34 31 35 36 36 10 38 11 39
REMARK SMILES IDX 12 40 30 41 13 42 29 43 14 44 15 45 16 46 27 47 17 48 25 49
REMARK SMILES IDX 18 50 24 51 26 52 19 53 22 54 21 55 28 56 20 58 23 60 34 62
REMARK SMILES IDX 32 64
REMARK H PARENT 53 10 51 12 49 21 43 24 47 26 45 28 36 37 28 57 20 59 23 61
REMARK H PARENT 34 63 32 65
ROOT
ATOM      1  O   UNL     1      32.806  30.997 -18.198  1.00  0.00    -0.347 OA
ENDROOT
BRANCH   1   2
ATOM      2  C   UNL     1      31.834  31.737 -17.452  1.00  0.00     0.282 C 
ATOM      3  C   UNL     1      30.476  32.773 -19.103  1.00  0.00     0.150 C 
ATOM      4  O   UNL     1      30.590  31.708 -18.161  1.00  0.00    -0.344 OA
ATOM      5  C   UNL     1      30.300  34.103 -18.349  1.00  0.00     0.174 C 
ATOM      6  C   UNL     1      31.253  34.201 -17.144  1.00  0.00     0.180 C 
ATOM      7  C   UNL     1      32.386  33.169 -17.210  1.00  0.00     0.209 C 
ATOM      8  C   UNL     1      29.278  32.485 -20.001  1.00  0.00     0.041 C 
BRANCH   5   9
ATOM      9  O   UNL     1      30.542  35.190 -19.250  1.00  0.00    -0.388 OA
ATOM     10  H   UNL     1      29.679  35.433 -19.635  1.00  0.00     0.211 HD
ENDBRANCH   5   9
BRANCH   6  11
ATOM     11  O   UNL     1      30.510  34.049 -15.923  1.00  0.00    -0.387 OA
ATOM     12  H   UNL     1      29.580  34.267 -16.152  1.00  0.00     0.211 HD
ENDBRANCH   6  11
BRANCH   7  13
ATOM     13  O   UNL     1      33.091  33.236 -15.950  1.00  0.00    -0.338 OA
BRANCH  13  14
ATOM     14  C   UNL     1      33.123  31.988 -15.250  1.00  0.00     0.282 C 
ATOM     15  O   UNL     1      31.841  31.660 -14.726  1.00  0.00    -0.341 OA
ATOM     16  C   UNL     1      34.139  32.144 -14.102  1.00  0.00     0.202 C 
ATOM     17  C   UNL     1      31.842  30.403 -14.037  1.00  0.00     0.178 C 
ATOM     18  C   UNL     1      34.171  30.871 -13.260  1.00  0.00     0.179 C 
ATOM     19  C   UNL     1      32.762  30.486 -12.807  1.00  0.00     0.177 C 
BRANCH  16  20
ATOM     20  O   UNL     1      35.466  32.403 -14.588  1.00  0.00    -0.385 OA
ATOM     21  H   UNL     1      35.369  33.141 -15.228  1.00  0.00     0.211 HD
ENDBRANCH  16  20
BRANCH  17  22
ATOM     22  C   UNL     1      30.408  30.035 -13.633  1.00  0.00     0.191 C 
BRANCH  22  23
ATOM     23  O   UNL     1      30.147  30.352 -12.269  1.00  0.00    -0.394 OA
ATOM     24  H   UNL     1      30.743  31.094 -12.034  1.00  0.00     0.210 HD
ENDBRANCH  22  23
ENDBRANCH  17  22
BRANCH  18  25
ATOM     25  O   UNL     1      35.002  31.060 -12.102  1.00  0.00    -0.387 OA
ATOM     26  H   UNL     1      34.466  31.611 -11.496  1.00  0.00     0.211 HD
ENDBRANCH  18  25
BRANCH  19  27
ATOM     27  O   UNL     1      32.810  29.239 -12.104  1.00  0.00    -0.387 OA
ATOM     28  H   UNL     1      33.611  29.300 -11.541  1.00  0.00     0.211 HD
ENDBRANCH  19  27
ENDBRANCH  13  14
ENDBRANCH   7  13
ENDBRANCH   1   2
BRANCH   1  29
ATOM     29  C   UNL     1      34.023  31.722 -18.420  1.00  0.00     0.198 C 
BRANCH  29  30
ATOM     30  C   UNL     1      35.137  31.207 -17.494  1.00  0.00     0.180 C 
ATOM     31  O   UNL     1      35.483  29.867 -17.857  1.00  0.00    -0.332 OA
ATOM     32  C   UNL     1      36.409  32.060 -17.622  1.00  0.00     0.177 C 
ATOM     33  C   UNL     1      36.241  29.199 -16.838  1.00  0.00     0.339 C 
ATOM     34  C   UNL     1      37.636  31.321 -17.035  1.00  0.00     0.180 C 
ATOM     35  C   UNL     1      37.247  30.144 -16.123  1.00  0.00     0.214 C 
BRANCH  32  36
ATOM     36  O   UNL     1      36.218  33.316 -16.968  1.00  0.00    -0.387 OA
ATOM     37  H   UNL     1      35.857  33.128 -16.083  1.00  0.00     0.211 HD
ENDBRANCH  32  36
BRANCH  33  38
ATOM     38  O   UNL     1      37.009  28.139 -17.444  1.00  0.00    -0.462 OA
BRANCH  38  39
ATOM     39  C   UNL     1      38.046  27.775 -16.628  1.00  0.00     0.123 A 
ATOM     40  C   UNL     1      38.073  28.197 -15.302  1.00  0.00     0.047 A 
ATOM     41  C   UNL     1      39.043  26.943 -17.129  1.00  0.00     0.047 A 
ATOM     42  C   UNL     1      39.144  27.837 -14.484  1.00  0.00     0.016 A 
ATOM     43  C   UNL     1      40.115  26.583 -16.310  1.00  0.00     0.016 A 
ATOM     44  C   UNL     1      40.186  27.045 -14.986  1.00  0.00     0.021 A 
BRANCH  44  45
ATOM     45  C   UNL     1      41.331  26.681 -14.137  1.00  0.00     0.180 A 
ATOM     46  O   UNL     1      42.434  26.250 -14.859  1.00  0.00    -0.452 OA
ATOM     47  C   UNL     1      41.292  26.781 -12.797  1.00  0.00     0.208 A 
ATOM     48  C   UNL     1      43.561  25.869 -14.174  1.00  0.00     0.146 A 
ATOM     49  C   UNL     1      42.490  26.380 -12.026  1.00  0.00     0.238 A 
ATOM     50  C   UNL     1      44.644  25.427 -14.935  1.00  0.00     0.094 A 
ATOM     51  C   UNL     1      43.652  25.909 -12.783  1.00  0.00     0.111 A 
ATOM     52  O   UNL     1      42.488  26.445 -10.800  1.00  0.00    -0.285 OA
ATOM     53  C   UNL     1      45.812  25.029 -14.290  1.00  0.00     0.123 A 
ATOM     54  C   UNL     1      44.831  25.508 -12.147  1.00  0.00     0.134 A 
ATOM     55  C   UNL     1      45.913  25.067 -12.902  1.00  0.00     0.093 A 
BRANCH  47  56
ATOM     56  O   UNL     1      40.202  27.253 -12.080  1.00  0.00    -0.502 OA
ATOM     57  H   UNL     1      40.549  27.383 -11.168  1.00  0.00     0.293 HD
ENDBRANCH  47  56
BRANCH  53  58
ATOM     58  O   UNL     1      46.895  24.591 -14.992  1.00  0.00    -0.508 OA
ATOM     59  H   UNL     1      46.728  23.690 -15.315  1.00  0.00     0.293 HD
ENDBRANCH  53  58
BRANCH  54  60
ATOM     60  O   UNL     1      44.987  25.524 -10.787  1.00  0.00    -0.507 OA
ATOM     61  H   UNL     1      45.158  26.447 -10.500  1.00  0.00     0.293 HD
ENDBRANCH  54  60
ENDBRANCH  44  45
ENDBRANCH  38  39
ENDBRANCH  33  38
BRANCH  34  62
ATOM     62  O   UNL     1      38.487  30.872 -18.098  1.00  0.00    -0.387 OA
ATOM     63  H   UNL     1      37.964  30.861 -18.925  1.00  0.00     0.211 HD
ENDBRANCH  34  62
BRANCH  35  64
ATOM     64  O   UNL     1      36.663  30.633 -14.904  1.00  0.00    -0.384 OA
ATOM     65  H   UNL     1      37.237  31.343 -14.562  1.00  0.00     0.211 HD
ENDBRANCH  35  64
ENDBRANCH  29  30
ENDBRANCH   1  29
TORSDOF 21
ENDMDL
