MODEL 1
REMARK VINA RESULT:    -9.905      0.000      0.000
REMARK INTER + INTRA:         -14.545
REMARK INTER:                 -13.958
REMARK INTRA:                  -0.587
REMARK UNBOUND:                -0.587
REMARK SMILES C[C@H]([NH2+]Cc1ccc(OCc2cccc(F)c2)cc1)C(N)=O
REMARK SMILES IDX 5 1 6 2 7 3 8 4 18 5 19 6 4 7 3 8 2 11 1 12 20 13 21 14
REMARK SMILES IDX 22 15 9 18 10 19 11 20 12 21 17 22 13 23 15 24 14 25 16 26
REMARK H PARENT 3 9 3 10 21 16 21 17
ROOT
ATOM      1  C   UNL     1      36.040  29.599 -16.950  1.00  0.00     0.006 A 
ATOM      2  C   UNL     1      36.255  29.951 -15.611  1.00  0.00     0.013 A 
ATOM      3  C   UNL     1      37.269  29.330 -14.877  1.00  0.00     0.047 A 
ATOM      4  C   UNL     1      38.078  28.350 -15.455  1.00  0.00     0.119 A 
ATOM      5  C   UNL     1      37.862  27.993 -16.783  1.00  0.00     0.047 A 
ATOM      6  C   UNL     1      36.848  28.609 -17.526  1.00  0.00     0.013 A 
ENDROOT
BRANCH   1   7
ATOM      7  C   UNL     1      34.930  30.235 -17.736  1.00  0.00     0.297 C 
BRANCH   7   8
ATOM      8  N   UNL     1      34.394  31.416 -17.023  1.00  0.00    -0.333 N 
ATOM      9  H   UNL     1      33.521  31.181 -16.534  1.00  0.00     0.347 HD
ATOM     10  H   UNL     1      35.033  31.660 -16.242  1.00  0.00     0.347 HD
BRANCH   8  11
ATOM     11  C   UNL     1      34.227  32.686 -17.833  1.00  0.00     0.269 C 
ATOM     12  C   UNL     1      32.838  33.247 -17.584  1.00  0.00     0.086 C 
BRANCH  11  13
ATOM     13  C   UNL     1      35.345  33.659 -17.416  1.00  0.00     0.275 C 
ATOM     14  N   UNL     1      35.965  34.397 -18.369  1.00  0.00    -0.365 N 
ATOM     15  O   UNL     1      35.675  33.719 -16.231  1.00  0.00    -0.268 OA
ATOM     16  H   UNL     1      36.719  35.013 -18.074  1.00  0.00     0.159 HD
ATOM     17  H   UNL     1      35.796  34.343 -19.366  1.00  0.00     0.159 HD
ENDBRANCH  11  13
ENDBRANCH   8  11
ENDBRANCH   7   8
ENDBRANCH   1   7
BRANCH   4  18
ATOM     18  O   UNL     1      39.034  27.845 -14.621  1.00  0.00    -0.489 OA
BRANCH  18  19
ATOM     19  C   UNL     1      39.776  26.691 -15.027  1.00  0.00     0.265 C 
BRANCH  19  20
ATOM     20  C   UNL     1      41.128  26.591 -14.358  1.00  0.00    -0.008 A 
ATOM     21  C   UNL     1      41.403  27.286 -13.169  1.00  0.00     0.007 A 
ATOM     22  C   UNL     1      42.117  25.753 -14.892  1.00  0.00     0.046 A 
ATOM     23  C   UNL     1      42.647  27.169 -12.544  1.00  0.00     0.003 A 
ATOM     24  C   UNL     1      43.353  25.646 -14.263  1.00  0.00     0.123 A 
ATOM     25  C   UNL     1      43.628  26.347 -13.096  1.00  0.00     0.039 A 
ATOM     26  F   UNL     1      44.293  24.855 -14.794  1.00  0.00    -0.207 F 
ENDBRANCH  19  20
ENDBRANCH  18  19
ENDBRANCH   4  18
TORSDOF 7
ENDMDL
MODEL 2
REMARK VINA RESULT:    -9.771      5.296      9.688
REMARK INTER + INTRA:         -14.356
REMARK INTER:                 -13.707
REMARK INTRA:                  -0.649
REMARK UNBOUND:                -0.587
REMARK SMILES C[C@H]([NH2+]Cc1ccc(OCc2cccc(F)c2)cc1)C(N)=O
REMARK SMILES IDX 5 1 6 2 7 3 8 4 18 5 19 6 4 7 3 8 2 11 1 12 20 13 21 14
REMARK SMILES IDX 22 15 9 18 10 19 11 20 12 21 17 22 13 23 15 24 14 25 16 26
REMARK H PARENT 3 9 3 10 21 16 21 17
ROOT
ATOM      1  C   UNL     1      42.812  26.725 -13.292  1.00  0.00     0.006 A 
ATOM      2  C   UNL     1      42.515  26.175 -14.546  1.00  0.00     0.013 A 
ATOM      3  C   UNL     1      41.200  26.177 -15.019  1.00  0.00     0.047 A 
ATOM      4  C   UNL     1      40.162  26.716 -14.256  1.00  0.00     0.119 A 
ATOM      5  C   UNL     1      40.453  27.258 -13.007  1.00  0.00     0.047 A 
ATOM      6  C   UNL     1      41.768  27.260 -12.525  1.00  0.00     0.013 A 
ENDROOT
BRANCH   1   7
ATOM      7  C   UNL     1      44.215  26.694 -12.760  1.00  0.00     0.297 C 
BRANCH   7   8
ATOM      8  N   UNL     1      45.186  26.482 -13.857  1.00  0.00    -0.333 N 
ATOM      9  H   UNL     1      44.759  25.944 -14.622  1.00  0.00     0.347 HD
ATOM     10  H   UNL     1      45.392  27.394 -14.309  1.00  0.00     0.347 HD
BRANCH   8  11
ATOM     11  C   UNL     1      46.530  25.895 -13.477  1.00  0.00     0.269 C 
ATOM     12  C   UNL     1      46.400  24.384 -13.399  1.00  0.00     0.086 C 
BRANCH  11  13
ATOM     13  C   UNL     1      47.556  26.349 -14.530  1.00  0.00     0.275 C 
ATOM     14  N   UNL     1      47.696  25.626 -15.669  1.00  0.00    -0.365 N 
ATOM     15  O   UNL     1      48.252  27.339 -14.301  1.00  0.00    -0.268 OA
ATOM     16  H   UNL     1      48.399  25.930 -16.338  1.00  0.00     0.159 HD
ATOM     17  H   UNL     1      47.213  24.764 -15.888  1.00  0.00     0.159 HD
ENDBRANCH  11  13
ENDBRANCH   8  11
ENDBRANCH   7   8
ENDBRANCH   1   7
BRANCH   4  18
ATOM     18  O   UNL     1      38.936  26.661 -14.854  1.00  0.00    -0.489 OA
BRANCH  18  19
ATOM     19  C   UNL     1      38.733  27.346 -16.094  1.00  0.00     0.265 C 
BRANCH  19  20
ATOM     20  C   UNL     1      37.601  28.346 -16.040  1.00  0.00    -0.008 A 
ATOM     21  C   UNL     1      37.293  29.031 -14.853  1.00  0.00     0.007 A 
ATOM     22  C   UNL     1      36.869  28.644 -17.198  1.00  0.00     0.046 A 
ATOM     23  C   UNL     1      36.261  29.971 -14.817  1.00  0.00     0.003 A 
ATOM     24  C   UNL     1      35.841  29.580 -17.150  1.00  0.00     0.123 A 
ATOM     25  C   UNL     1      35.528  30.245 -15.972  1.00  0.00     0.039 A 
ATOM     26  F   UNL     1      35.140  29.842 -18.261  1.00  0.00    -0.207 F 
ENDBRANCH  19  20
ENDBRANCH  18  19
ENDBRANCH   4  18
TORSDOF 7
ENDMDL
MODEL 3
REMARK VINA RESULT:    -9.698      1.538      2.157
REMARK INTER + INTRA:         -14.253
REMARK INTER:                 -13.608
REMARK INTRA:                  -0.646
REMARK UNBOUND:                -0.587
REMARK SMILES C[C@H]([NH2+]Cc1ccc(OCc2cccc(F)c2)cc1)C(N)=O
REMARK SMILES IDX 5 1 6 2 7 3 8 4 18 5 19 6 4 7 3 8 2 11 1 12 20 13 21 14
REMARK SMILES IDX 22 15 9 18 10 19 11 20 12 21 17 22 13 23 15 24 14 25 16 26
REMARK H PARENT 3 9 3 10 21 16 21 17
ROOT
ATOM      1  C   UNL     1      35.566  30.009 -16.814  1.00  0.00     0.006 A 
ATOM      2  C   UNL     1      36.542  29.109 -17.262  1.00  0.00     0.013 A 
ATOM      3  C   UNL     1      37.498  28.612 -16.373  1.00  0.00     0.047 A 
ATOM      4  C   UNL     1      37.506  29.003 -15.033  1.00  0.00     0.119 A 
ATOM      5  C   UNL     1      36.542  29.903 -14.586  1.00  0.00     0.047 A 
ATOM      6  C   UNL     1      35.580  30.406 -15.470  1.00  0.00     0.013 A 
ENDROOT
BRANCH   1   7
ATOM      7  C   UNL     1      34.557  30.575 -17.771  1.00  0.00     0.297 C 
BRANCH   7   8
ATOM      8  N   UNL     1      33.423  31.180 -17.037  1.00  0.00    -0.333 N 
ATOM      9  H   UNL     1      32.552  30.671 -17.231  1.00  0.00     0.347 HD
ATOM     10  H   UNL     1      33.556  31.025 -16.020  1.00  0.00     0.347 HD
BRANCH   8  11
ATOM     11  C   UNL     1      33.218  32.673 -17.205  1.00  0.00     0.269 C 
ATOM     12  C   UNL     1      34.414  33.251 -17.942  1.00  0.00     0.086 C 
BRANCH  11  13
ATOM     13  C   UNL     1      31.895  32.883 -17.962  1.00  0.00     0.275 C 
ATOM     14  N   UNL     1      31.113  31.808 -18.233  1.00  0.00    -0.365 N 
ATOM     15  O   UNL     1      31.593  34.016 -18.337  1.00  0.00    -0.268 OA
ATOM     16  H   UNL     1      30.257  31.967 -18.758  1.00  0.00     0.159 HD
ATOM     17  H   UNL     1      31.335  30.844 -18.020  1.00  0.00     0.159 HD
ENDBRANCH  11  13
ENDBRANCH   8  11
ENDBRANCH   7   8
ENDBRANCH   1   7
BRANCH   4  18
ATOM     18  O   UNL     1      38.489  28.424 -14.282  1.00  0.00    -0.489 OA
BRANCH  18  19
ATOM     19  C   UNL     1      39.002  27.147 -14.671  1.00  0.00     0.265 C 
BRANCH  19  20
ATOM     20  C   UNL     1      40.409  26.898 -14.175  1.00  0.00    -0.008 A 
ATOM     21  C   UNL     1      40.855  27.435 -12.957  1.00  0.00     0.007 A 
ATOM     22  C   UNL     1      41.278  26.076 -14.907  1.00  0.00     0.046 A 
ATOM     23  C   UNL     1      42.148  27.181 -12.494  1.00  0.00     0.003 A 
ATOM     24  C   UNL     1      42.565  25.832 -14.438  1.00  0.00     0.123 A 
ATOM     25  C   UNL     1      43.009  26.378 -13.241  1.00  0.00     0.039 A 
ATOM     26  F   UNL     1      43.388  25.059 -15.156  1.00  0.00    -0.207 F 
ENDBRANCH  19  20
ENDBRANCH  18  19
ENDBRANCH   4  18
TORSDOF 7
ENDMDL
MODEL 4
REMARK VINA RESULT:    -9.571      1.728      2.362
REMARK INTER + INTRA:         -14.075
REMARK INTER:                 -13.364
REMARK INTRA:                  -0.712
REMARK UNBOUND:                -0.587
REMARK SMILES C[C@H]([NH2+]Cc1ccc(OCc2cccc(F)c2)cc1)C(N)=O
REMARK SMILES IDX 5 1 6 2 7 3 8 4 18 5 19 6 4 7 3 8 2 11 1 12 20 13 21 14
REMARK SMILES IDX 22 15 9 18 10 19 11 20 12 21 17 22 13 23 15 24 14 25 16 26
REMARK H PARENT 3 9 3 10 21 16 21 17
ROOT
ATOM      1  C   UNL     1      35.386  30.348 -16.002  1.00  0.00     0.006 A 
ATOM      2  C   UNL     1      35.771  29.726 -17.197  1.00  0.00     0.013 A 
ATOM      3  C   UNL     1      36.855  28.847 -17.213  1.00  0.00     0.047 A 
ATOM      4  C   UNL     1      37.579  28.576 -16.050  1.00  0.00     0.119 A 
ATOM      5  C   UNL     1      37.204  29.197 -14.861  1.00  0.00     0.047 A 
ATOM      6  C   UNL     1      36.118  30.080 -14.836  1.00  0.00     0.013 A 
ENDROOT
BRANCH   1   7
ATOM      7  C   UNL     1      34.245  31.323 -15.983  1.00  0.00     0.297 C 
BRANCH   7   8
ATOM      8  N   UNL     1      33.620  31.423 -17.321  1.00  0.00    -0.333 N 
ATOM      9  H   UNL     1      34.044  32.187 -17.863  1.00  0.00     0.347 HD
ATOM     10  H   UNL     1      33.872  30.584 -17.877  1.00  0.00     0.347 HD
BRANCH   8  11
ATOM     11  C   UNL     1      32.108  31.511 -17.365  1.00  0.00     0.269 C 
ATOM     12  C   UNL     1      31.576  31.506 -15.942  1.00  0.00     0.086 C 
BRANCH  11  13
ATOM     13  C   UNL     1      31.735  32.791 -18.134  1.00  0.00     0.275 C 
ATOM     14  N   UNL     1      30.697  32.757 -19.006  1.00  0.00    -0.365 N 
ATOM     15  O   UNL     1      32.409  33.808 -17.968  1.00  0.00    -0.268 OA
ATOM     16  H   UNL     1      30.485  33.607 -19.523  1.00  0.00     0.159 HD
ATOM     17  H   UNL     1      30.149  31.939 -19.246  1.00  0.00     0.159 HD
ENDBRANCH  11  13
ENDBRANCH   8  11
ENDBRANCH   7   8
ENDBRANCH   1   7
BRANCH   4  18
ATOM     18  O   UNL     1      38.601  27.686 -16.216  1.00  0.00    -0.489 OA
BRANCH  18  19
ATOM     19  C   UNL     1      38.739  26.601 -15.294  1.00  0.00     0.265 C 
BRANCH  19  20
ATOM     20  C   UNL     1      39.949  26.737 -14.397  1.00  0.00    -0.008 A 
ATOM     21  C   UNL     1      39.829  27.220 -13.085  1.00  0.00     0.007 A 
ATOM     22  C   UNL     1      41.211  26.328 -14.852  1.00  0.00     0.046 A 
ATOM     23  C   UNL     1      40.949  27.320 -12.254  1.00  0.00     0.003 A 
ATOM     24  C   UNL     1      42.319  26.434 -14.017  1.00  0.00     0.123 A 
ATOM     25  C   UNL     1      42.201  26.928 -12.725  1.00  0.00     0.039 A 
ATOM     26  F   UNL     1      43.520  26.055 -14.472  1.00  0.00    -0.207 F 
ENDBRANCH  19  20
ENDBRANCH  18  19
ENDBRANCH   4  18
TORSDOF 7
ENDMDL
MODEL 5
REMARK VINA RESULT:    -9.507      1.280      1.836
REMARK INTER + INTRA:         -13.984
REMARK INTER:                 -13.338
REMARK INTRA:                  -0.646
REMARK UNBOUND:                -0.587
REMARK SMILES C[C@H]([NH2+]Cc1ccc(OCc2cccc(F)c2)cc1)C(N)=O
REMARK SMILES IDX 5 1 6 2 7 3 8 4 18 5 19 6 4 7 3 8 2 11 1 12 20 13 21 14
REMARK SMILES IDX 22 15 9 18 10 19 11 20 12 21 17 22 13 23 15 24 14 25 16 26
REMARK H PARENT 3 9 3 10 21 16 21 17
ROOT
ATOM      1  C   UNL     1      36.598  29.164 -16.858  1.00  0.00     0.006 A 
ATOM      2  C   UNL     1      37.182  28.175 -17.660  1.00  0.00     0.013 A 
ATOM      3  C   UNL     1      38.154  27.324 -17.128  1.00  0.00     0.047 A 
ATOM      4  C   UNL     1      38.565  27.444 -15.799  1.00  0.00     0.119 A 
ATOM      5  C   UNL     1      37.991  28.430 -15.001  1.00  0.00     0.047 A 
ATOM      6  C   UNL     1      37.017  29.287 -15.526  1.00  0.00     0.013 A 
ENDROOT
BRANCH   1   7
ATOM      7  C   UNL     1      35.580  30.106 -17.431  1.00  0.00     0.297 C 
BRANCH   7   8
ATOM      8  N   UNL     1      34.749  30.695 -16.357  1.00  0.00    -0.333 N 
ATOM      9  H   UNL     1      33.809  30.278 -16.355  1.00  0.00     0.347 HD
ATOM     10  H   UNL     1      35.129  30.405 -15.436  1.00  0.00     0.347 HD
BRANCH   8  11
ATOM     11  C   UNL     1      34.661  32.208 -16.312  1.00  0.00     0.269 C 
ATOM     12  C   UNL     1      36.064  32.775 -16.174  1.00  0.00     0.086 C 
BRANCH  11  13
ATOM     13  C   UNL     1      33.954  32.676 -17.596  1.00  0.00     0.275 C 
ATOM     14  N   UNL     1      32.814  32.053 -17.985  1.00  0.00    -0.365 N 
ATOM     15  O   UNL     1      34.459  33.581 -18.261  1.00  0.00    -0.268 OA
ATOM     16  H   UNL     1      32.379  32.362 -18.851  1.00  0.00     0.159 HD
ATOM     17  H   UNL     1      32.387  31.257 -17.528  1.00  0.00     0.159 HD
ENDBRANCH  11  13
ENDBRANCH   8  11
ENDBRANCH   7   8
ENDBRANCH   1   7
BRANCH   4  18
ATOM     18  O   UNL     1      39.509  26.534 -15.417  1.00  0.00    -0.489 OA
BRANCH  18  19
ATOM     19  C   UNL     1      39.856  26.428 -14.034  1.00  0.00     0.265 C 
BRANCH  19  20
ATOM     20  C   UNL     1      41.349  26.452 -13.794  1.00  0.00    -0.008 A 
ATOM     21  C   UNL     1      41.920  27.332 -12.861  1.00  0.00     0.007 A 
ATOM     22  C   UNL     1      42.185  25.550 -14.468  1.00  0.00     0.046 A 
ATOM     23  C   UNL     1      43.298  27.332 -12.628  1.00  0.00     0.003 A 
ATOM     24  C   UNL     1      43.555  25.560 -14.230  1.00  0.00     0.123 A 
ATOM     25  C   UNL     1      44.120  26.443 -13.319  1.00  0.00     0.039 A 
ATOM     26  F   UNL     1      44.342  24.705 -14.894  1.00  0.00    -0.207 F 
ENDBRANCH  19  20
ENDBRANCH  18  19
ENDBRANCH   4  18
TORSDOF 7
ENDMDL
MODEL 6
REMARK VINA RESULT:    -9.396      1.506      2.200
REMARK INTER + INTRA:         -13.829
REMARK INTER:                 -13.134
REMARK INTRA:                  -0.695
REMARK UNBOUND:                -0.587
REMARK SMILES C[C@H]([NH2+]Cc1ccc(OCc2cccc(F)c2)cc1)C(N)=O
REMARK SMILES IDX 5 1 6 2 7 3 8 4 18 5 19 6 4 7 3 8 2 11 1 12 20 13 21 14
REMARK SMILES IDX 22 15 9 18 10 19 11 20 12 21 17 22 13 23 15 24 14 25 16 26
REMARK H PARENT 3 9 3 10 21 16 21 17
ROOT
ATOM      1  C   UNL     1      37.578  28.645 -16.082  1.00  0.00     0.006 A 
ATOM      2  C   UNL     1      37.788  29.259 -14.840  1.00  0.00     0.013 A 
ATOM      3  C   UNL     1      38.623  28.659 -13.895  1.00  0.00     0.047 A 
ATOM      4  C   UNL     1      39.256  27.443 -14.161  1.00  0.00     0.119 A 
ATOM      5  C   UNL     1      39.045  26.828 -15.392  1.00  0.00     0.047 A 
ATOM      6  C   UNL     1      38.209  27.421 -16.346  1.00  0.00     0.013 A 
ENDROOT
BRANCH   1   7
ATOM      7  C   UNL     1      36.654  29.264 -17.091  1.00  0.00     0.297 C 
BRANCH   7   8
ATOM      8  N   UNL     1      36.775  30.739 -17.076  1.00  0.00    -0.333 N 
ATOM      9  H   UNL     1      37.415  31.043 -16.332  1.00  0.00     0.347 HD
ATOM     10  H   UNL     1      37.264  31.048 -17.937  1.00  0.00     0.347 HD
BRANCH   8  11
ATOM     11  C   UNL     1      35.483  31.530 -17.027  1.00  0.00     0.269 C 
ATOM     12  C   UNL     1      34.563  30.901 -15.995  1.00  0.00     0.086 C 
BRANCH  11  13
ATOM     13  C   UNL     1      35.840  32.990 -16.694  1.00  0.00     0.275 C 
ATOM     14  N   UNL     1      35.974  33.883 -17.706  1.00  0.00    -0.365 N 
ATOM     15  O   UNL     1      36.030  33.307 -15.520  1.00  0.00    -0.268 OA
ATOM     16  H   UNL     1      36.237  34.835 -17.465  1.00  0.00     0.159 HD
ATOM     17  H   UNL     1      35.905  33.674 -18.695  1.00  0.00     0.159 HD
ENDBRANCH  11  13
ENDBRANCH   8  11
ENDBRANCH   7   8
ENDBRANCH   1   7
BRANCH   4  18
ATOM     18  O   UNL     1      40.052  26.989 -13.150  1.00  0.00    -0.489 OA
BRANCH  18  19
ATOM     19  C   UNL     1      41.315  27.620 -12.918  1.00  0.00     0.265 C 
BRANCH  19  20
ATOM     20  C   UNL     1      42.490  26.773 -13.352  1.00  0.00    -0.008 A 
ATOM     21  C   UNL     1      42.326  25.720 -14.266  1.00  0.00     0.007 A 
ATOM     22  C   UNL     1      43.779  27.064 -12.883  1.00  0.00     0.046 A 
ATOM     23  C   UNL     1      43.421  24.957 -14.681  1.00  0.00     0.003 A 
ATOM     24  C   UNL     1      44.861  26.296 -13.300  1.00  0.00     0.123 A 
ATOM     25  C   UNL     1      44.694  25.245 -14.192  1.00  0.00     0.039 A 
ATOM     26  F   UNL     1      46.083  26.576 -12.830  1.00  0.00    -0.207 F 
ENDBRANCH  19  20
ENDBRANCH  18  19
ENDBRANCH   4  18
TORSDOF 7
ENDMDL
MODEL 7
REMARK VINA RESULT:    -9.333      4.723      8.990
REMARK INTER + INTRA:         -13.739
REMARK INTER:                 -13.030
REMARK INTRA:                  -0.710
REMARK UNBOUND:                -0.587
REMARK SMILES C[C@H]([NH2+]Cc1ccc(OCc2cccc(F)c2)cc1)C(N)=O
REMARK SMILES IDX 5 1 6 2 7 3 8 4 18 5 19 6 4 7 3 8 2 11 1 12 20 13 21 14
REMARK SMILES IDX 22 15 9 18 10 19 11 20 12 21 17 22 13 23 15 24 14 25 16 26
REMARK H PARENT 3 9 3 10 21 16 21 17
ROOT
ATOM      1  C   UNL     1      39.084  27.519 -14.088  1.00  0.00     0.006 A 
ATOM      2  C   UNL     1      38.554  28.814 -14.014  1.00  0.00     0.013 A 
ATOM      3  C   UNL     1      37.884  29.362 -15.110  1.00  0.00     0.047 A 
ATOM      4  C   UNL     1      37.736  28.641 -16.297  1.00  0.00     0.119 A 
ATOM      5  C   UNL     1      38.268  27.356 -16.377  1.00  0.00     0.047 A 
ATOM      6  C   UNL     1      38.941  26.799 -15.282  1.00  0.00     0.013 A 
ENDROOT
BRANCH   1   7
ATOM      7  C   UNL     1      39.836  26.936 -12.927  1.00  0.00     0.297 C 
BRANCH   7   8
ATOM      8  N   UNL     1      40.929  26.058 -13.400  1.00  0.00    -0.333 N 
ATOM      9  H   UNL     1      41.139  25.332 -12.703  1.00  0.00     0.347 HD
ATOM     10  H   UNL     1      40.592  25.503 -14.210  1.00  0.00     0.347 HD
BRANCH   8  11
ATOM     11  C   UNL     1      42.201  26.738 -13.865  1.00  0.00     0.269 C 
ATOM     12  C   UNL     1      43.113  26.939 -12.667  1.00  0.00     0.086 C 
BRANCH  11  13
ATOM     13  C   UNL     1      42.835  25.854 -14.953  1.00  0.00     0.275 C 
ATOM     14  N   UNL     1      43.952  25.144 -14.658  1.00  0.00    -0.365 N 
ATOM     15  O   UNL     1      42.335  25.838 -16.078  1.00  0.00    -0.268 OA
ATOM     16  H   UNL     1      44.369  24.588 -15.400  1.00  0.00     0.159 HD
ATOM     17  H   UNL     1      44.456  25.168 -13.780  1.00  0.00     0.159 HD
ENDBRANCH  11  13
ENDBRANCH   8  11
ENDBRANCH   7   8
ENDBRANCH   1   7
BRANCH   4  18
ATOM     18  O   UNL     1      37.048  29.299 -17.274  1.00  0.00    -0.489 OA
BRANCH  18  19
ATOM     19  C   UNL     1      35.644  29.524 -17.109  1.00  0.00     0.265 C 
BRANCH  19  20
ATOM     20  C   UNL     1      35.256  30.978 -17.255  1.00  0.00    -0.008 A 
ATOM     21  C   UNL     1      36.172  32.005 -16.978  1.00  0.00     0.007 A 
ATOM     22  C   UNL     1      33.980  31.322 -17.723  1.00  0.00     0.046 A 
ATOM     23  C   UNL     1      35.813  33.346 -17.138  1.00  0.00     0.003 A 
ATOM     24  C   UNL     1      33.632  32.660 -17.876  1.00  0.00     0.123 A 
ATOM     25  C   UNL     1      34.535  33.675 -17.586  1.00  0.00     0.039 A 
ATOM     26  F   UNL     1      32.404  32.973 -18.309  1.00  0.00    -0.207 F 
ENDBRANCH  19  20
ENDBRANCH  18  19
ENDBRANCH   4  18
TORSDOF 7
ENDMDL
MODEL 8
REMARK VINA RESULT:    -9.162      4.905      9.288
REMARK INTER + INTRA:         -13.498
REMARK INTER:                 -12.985
REMARK INTRA:                  -0.513
REMARK UNBOUND:                -0.587
REMARK SMILES C[C@H]([NH2+]Cc1ccc(OCc2cccc(F)c2)cc1)C(N)=O
REMARK SMILES IDX 5 1 6 2 7 3 8 4 18 5 19 6 4 7 3 8 2 11 1 12 20 13 21 14
REMARK SMILES IDX 22 15 9 18 10 19 11 20 12 21 17 22 13 23 15 24 14 25 16 26
REMARK H PARENT 3 9 3 10 21 16 21 17
ROOT
ATOM      1  C   UNL     1      41.220  26.178 -14.713  1.00  0.00     0.006 A 
ATOM      2  C   UNL     1      40.614  26.807 -13.618  1.00  0.00     0.013 A 
ATOM      3  C   UNL     1      39.375  27.435 -13.767  1.00  0.00     0.047 A 
ATOM      4  C   UNL     1      38.723  27.456 -15.001  1.00  0.00     0.119 A 
ATOM      5  C   UNL     1      39.325  26.837 -16.093  1.00  0.00     0.047 A 
ATOM      6  C   UNL     1      40.567  26.205 -15.953  1.00  0.00     0.013 A 
ENDROOT
BRANCH   1   7
ATOM      7  C   UNL     1      42.567  25.532 -14.571  1.00  0.00     0.297 C 
BRANCH   7   8
ATOM      8  N   UNL     1      43.646  26.534 -14.716  1.00  0.00    -0.333 N 
ATOM      9  H   UNL     1      44.181  26.370 -15.577  1.00  0.00     0.347 HD
ATOM     10  H   UNL     1      43.223  27.466 -14.885  1.00  0.00     0.347 HD
BRANCH   8  11
ATOM     11  C   UNL     1      44.578  26.711 -13.533  1.00  0.00     0.269 C 
ATOM     12  C   UNL     1      43.785  26.518 -12.252  1.00  0.00     0.086 C 
BRANCH  11  13
ATOM     13  C   UNL     1      45.723  25.694 -13.682  1.00  0.00     0.275 C 
ATOM     14  N   UNL     1      46.755  25.981 -14.515  1.00  0.00    -0.365 N 
ATOM     15  O   UNL     1      45.661  24.628 -13.070  1.00  0.00    -0.268 OA
ATOM     16  H   UNL     1      47.487  25.282 -14.619  1.00  0.00     0.159 HD
ATOM     17  H   UNL     1      46.833  26.801 -15.103  1.00  0.00     0.159 HD
ENDBRANCH  11  13
ENDBRANCH   8  11
ENDBRANCH   7   8
ENDBRANCH   1   7
BRANCH   4  18
ATOM     18  O   UNL     1      37.515  28.092 -14.990  1.00  0.00    -0.489 OA
BRANCH  18  19
ATOM     19  C   UNL     1      37.475  29.515 -15.132  1.00  0.00     0.265 C 
BRANCH  19  20
ATOM     20  C   UNL     1      36.186  30.013 -15.746  1.00  0.00    -0.008 A 
ATOM     21  C   UNL     1      35.254  30.739 -14.988  1.00  0.00     0.007 A 
ATOM     22  C   UNL     1      35.926  29.798 -17.107  1.00  0.00     0.046 A 
ATOM     23  C   UNL     1      34.076  31.217 -15.569  1.00  0.00     0.003 A 
ATOM     24  C   UNL     1      34.749  30.276 -17.675  1.00  0.00     0.123 A 
ATOM     25  C   UNL     1      33.821  30.980 -16.918  1.00  0.00     0.039 A 
ATOM     26  F   UNL     1      34.507  30.049 -18.972  1.00  0.00    -0.207 F 
ENDBRANCH  19  20
ENDBRANCH  18  19
ENDBRANCH   4  18
TORSDOF 7
ENDMDL
MODEL 9
REMARK VINA RESULT:    -9.063      4.565      8.754
REMARK INTER + INTRA:         -13.359
REMARK INTER:                 -12.582
REMARK INTRA:                  -0.777
REMARK UNBOUND:                -0.587
REMARK SMILES C[C@H]([NH2+]Cc1ccc(OCc2cccc(F)c2)cc1)C(N)=O
REMARK SMILES IDX 5 1 6 2 7 3 8 4 18 5 19 6 4 7 3 8 2 11 1 12 20 13 21 14
REMARK SMILES IDX 22 15 9 18 10 19 11 20 12 21 17 22 13 23 15 24 14 25 16 26
REMARK H PARENT 3 9 3 10 21 16 21 17
ROOT
ATOM      1  C   UNL     1      38.587  27.555 -16.023  1.00  0.00     0.006 A 
ATOM      2  C   UNL     1      37.960  27.640 -17.274  1.00  0.00     0.013 A 
ATOM      3  C   UNL     1      36.909  28.538 -17.471  1.00  0.00     0.047 A 
ATOM      4  C   UNL     1      36.459  29.358 -16.433  1.00  0.00     0.119 A 
ATOM      5  C   UNL     1      37.075  29.271 -15.188  1.00  0.00     0.047 A 
ATOM      6  C   UNL     1      38.130  28.373 -14.981  1.00  0.00     0.013 A 
ENDROOT
BRANCH   1   7
ATOM      7  C   UNL     1      39.694  26.567 -15.792  1.00  0.00     0.297 C 
BRANCH   7   8
ATOM      8  N   UNL     1      39.925  26.369 -14.344  1.00  0.00    -0.333 N 
ATOM      9  H   UNL     1      39.596  27.183 -13.809  1.00  0.00     0.347 HD
ATOM     10  H   UNL     1      39.307  25.608 -14.003  1.00  0.00     0.347 HD
BRANCH   8  11
ATOM     11  C   UNL     1      41.329  25.984 -13.922  1.00  0.00     0.269 C 
ATOM     12  C   UNL     1      42.190  25.838 -15.164  1.00  0.00     0.086 C 
BRANCH  11  13
ATOM     13  C   UNL     1      41.846  27.072 -12.964  1.00  0.00     0.275 C 
ATOM     14  N   UNL     1      43.084  26.943 -12.428  1.00  0.00    -0.365 N 
ATOM     15  O   UNL     1      41.109  28.017 -12.678  1.00  0.00    -0.268 OA
ATOM     16  H   UNL     1      43.394  27.661 -11.776  1.00  0.00     0.159 HD
ATOM     17  H   UNL     1      43.710  26.159 -12.560  1.00  0.00     0.159 HD
ENDBRANCH  11  13
ENDBRANCH   8  11
ENDBRANCH   7   8
ENDBRANCH   1   7
BRANCH   4  18
ATOM     18  O   UNL     1      35.437  30.194 -16.779  1.00  0.00    -0.489 OA
BRANCH  18  19
ATOM     19  C   UNL     1      35.109  31.289 -15.918  1.00  0.00     0.265 C 
BRANCH  19  20
ATOM     20  C   UNL     1      33.831  31.070 -15.142  1.00  0.00    -0.008 A 
ATOM     21  C   UNL     1      32.575  31.206 -15.756  1.00  0.00     0.007 A 
ATOM     22  C   UNL     1      33.882  30.675 -13.797  1.00  0.00     0.046 A 
ATOM     23  C   UNL     1      31.399  30.978 -15.038  1.00  0.00     0.003 A 
ATOM     24  C   UNL     1      32.704  30.453 -13.091  1.00  0.00     0.123 A 
ATOM     25  C   UNL     1      31.464  30.604 -13.697  1.00  0.00     0.039 A 
ATOM     26  F   UNL     1      32.771  30.092 -11.803  1.00  0.00    -0.207 F 
ENDBRANCH  19  20
ENDBRANCH  18  19
ENDBRANCH   4  18
TORSDOF 7
ENDMDL
