MODEL 1
REMARK VINA RESULT:    -5.919      0.000      0.000
REMARK INTER + INTRA:          -6.960
REMARK INTER:                  -6.611
REMARK INTRA:                  -0.348
REMARK UNBOUND:                -0.348
REMARK SMILES C#CC[NH2+][C@@H]1CCc2ccccc21
REMARK SMILES IDX 1 1 2 2 3 3 4 4 5 7 6 8 13 9 7 10 12 11 8 12 11 13 9 14
REMARK SMILES IDX 10 15
REMARK H PARENT 4 5 4 6
ROOT
ATOM      1  C   UNL     1       9.980  24.930  24.324  1.00  0.00     0.010 C 
ATOM      2  C   UNL     1      10.438  24.020  24.961  1.00  0.00    -0.047 C 
ATOM      3  C   UNL     1      11.014  22.922  25.724  1.00  0.00     0.352 C 
ENDROOT
BRANCH   3   4
ATOM      4  N   UNL     1       9.959  22.168  26.456  1.00  0.00    -0.330 N 
ATOM      5  H   UNL     1      10.351  21.250  26.687  1.00  0.00     0.347 HD
ATOM      6  H   UNL     1       9.820  22.641  27.355  1.00  0.00     0.347 HD
BRANCH   4   7
ATOM      7  C   UNL     1       8.612  21.940  25.862  1.00  0.00     0.214 C 
ATOM      8  C   UNL     1       7.498  21.731  26.902  1.00  0.00     0.075 C 
ATOM      9  C   UNL     1       8.437  20.752  24.968  1.00  0.00     0.012 A 
ATOM     10  C   UNL     1       6.369  21.002  26.155  1.00  0.00     0.042 C 
ATOM     11  C   UNL     1       9.291  20.230  24.007  1.00  0.00     0.010 A 
ATOM     12  C   UNL     1       7.152  20.216  25.148  1.00  0.00    -0.039 A 
ATOM     13  C   UNL     1       8.858  19.133  23.259  1.00  0.00     0.001 A 
ATOM     14  C   UNL     1       6.712  19.137  24.400  1.00  0.00     0.004 A 
ATOM     15  C   UNL     1       7.581  18.588  23.457  1.00  0.00     0.000 A 
ENDBRANCH   4   7
ENDBRANCH   3   4
TORSDOF 2
ENDMDL
MODEL 2
REMARK VINA RESULT:    -5.731      2.325      3.768
REMARK INTER + INTRA:          -6.749
REMARK INTER:                  -6.577
REMARK INTRA:                  -0.172
REMARK UNBOUND:                -0.348
REMARK SMILES C#CC[NH2+][C@@H]1CCc2ccccc21
REMARK SMILES IDX 1 1 2 2 3 3 4 4 5 7 6 8 13 9 7 10 12 11 8 12 11 13 9 14
REMARK SMILES IDX 10 15
REMARK H PARENT 4 5 4 6
ROOT
ATOM      1  C   UNL     1       3.317  24.814  25.808  1.00  0.00     0.010 C 
ATOM      2  C   UNL     1       4.116  24.131  26.391  1.00  0.00    -0.047 C 
ATOM      3  C   UNL     1       5.084  23.319  27.114  1.00  0.00     0.352 C 
ENDROOT
BRANCH   3   4
ATOM      4  N   UNL     1       5.468  22.116  26.324  1.00  0.00    -0.330 N 
ATOM      5  H   UNL     1       4.870  21.346  26.640  1.00  0.00     0.347 HD
ATOM      6  H   UNL     1       5.195  22.294  25.352  1.00  0.00     0.347 HD
BRANCH   4   7
ATOM      7  C   UNL     1       6.870  21.613  26.306  1.00  0.00     0.214 C 
ATOM      8  C   UNL     1       7.928  22.718  26.145  1.00  0.00     0.075 C 
ATOM      9  C   UNL     1       7.250  20.651  25.224  1.00  0.00     0.012 A 
ATOM     10  C   UNL     1       9.186  22.009  25.617  1.00  0.00     0.042 C 
ATOM     11  C   UNL     1       6.533  19.591  24.685  1.00  0.00     0.010 A 
ATOM     12  C   UNL     1       8.576  20.890  24.829  1.00  0.00    -0.039 A 
ATOM     13  C   UNL     1       7.148  18.801  23.712  1.00  0.00     0.001 A 
ATOM     14  C   UNL     1       9.195  20.101  23.875  1.00  0.00     0.004 A 
ATOM     15  C   UNL     1       8.467  19.056  23.307  1.00  0.00     0.000 A 
ENDBRANCH   4   7
ENDBRANCH   3   4
TORSDOF 2
ENDMDL
MODEL 3
REMARK VINA RESULT:    -5.631      1.562      4.180
REMARK INTER + INTRA:          -6.638
REMARK INTER:                  -6.126
REMARK INTRA:                  -0.511
REMARK UNBOUND:                -0.348
REMARK SMILES C#CC[NH2+][C@@H]1CCc2ccccc21
REMARK SMILES IDX 1 1 2 2 3 3 4 4 5 7 6 8 13 9 7 10 12 11 8 12 11 13 9 14
REMARK SMILES IDX 10 15
REMARK H PARENT 4 5 4 6
ROOT
ATOM      1  C   UNL     1       8.229  22.052  28.429  1.00  0.00     0.010 C 
ATOM      2  C   UNL     1       7.402  21.685  27.638  1.00  0.00    -0.047 C 
ATOM      3  C   UNL     1       6.391  21.225  26.696  1.00  0.00     0.352 C 
ENDROOT
BRANCH   3   4
ATOM      4  N   UNL     1       6.565  21.874  25.367  1.00  0.00    -0.330 N 
ATOM      5  H   UNL     1       5.662  21.820  24.886  1.00  0.00     0.347 HD
ATOM      6  H   UNL     1       6.725  22.872  25.538  1.00  0.00     0.347 HD
BRANCH   4   7
ATOM      7  C   UNL     1       7.609  21.415  24.408  1.00  0.00     0.214 C 
ATOM      8  C   UNL     1       7.987  19.932  24.559  1.00  0.00     0.075 C 
ATOM      9  C   UNL     1       8.944  22.089  24.457  1.00  0.00     0.012 A 
ATOM     10  C   UNL     1       9.377  19.794  23.916  1.00  0.00     0.042 C 
ATOM     11  C   UNL     1       9.257  23.429  24.638  1.00  0.00     0.010 A 
ATOM     12  C   UNL     1       9.953  21.152  24.182  1.00  0.00    -0.039 A 
ATOM     13  C   UNL     1      10.599  23.811  24.583  1.00  0.00     0.001 A 
ATOM     14  C   UNL     1      11.283  21.527  24.113  1.00  0.00     0.004 A 
ATOM     15  C   UNL     1      11.605  22.867  24.327  1.00  0.00     0.000 A 
ENDBRANCH   4   7
ENDBRANCH   3   4
TORSDOF 2
ENDMDL
MODEL 4
REMARK VINA RESULT:    -5.468      1.462      3.184
REMARK INTER + INTRA:          -6.456
REMARK INTER:                  -5.928
REMARK INTRA:                  -0.528
REMARK UNBOUND:                -0.348
REMARK SMILES C#CC[NH2+][C@@H]1CCc2ccccc21
REMARK SMILES IDX 1 1 2 2 3 3 4 4 5 7 6 8 13 9 7 10 12 11 8 12 11 13 9 14
REMARK SMILES IDX 10 15
REMARK H PARENT 4 5 4 6
ROOT
ATOM      1  C   UNL     1      10.212  24.884  24.681  1.00  0.00     0.010 C 
ATOM      2  C   UNL     1      10.386  23.777  24.249  1.00  0.00    -0.047 C 
ATOM      3  C   UNL     1      10.603  22.444  23.705  1.00  0.00     0.352 C 
ENDROOT
BRANCH   3   4
ATOM      4  N   UNL     1      10.239  21.396  24.699  1.00  0.00    -0.330 N 
ATOM      5  H   UNL     1      10.820  20.576  24.498  1.00  0.00     0.347 HD
ATOM      6  H   UNL     1      10.548  21.731  25.617  1.00  0.00     0.347 HD
BRANCH   4   7
ATOM      7  C   UNL     1       8.835  20.921  24.849  1.00  0.00     0.214 C 
ATOM      8  C   UNL     1       8.020  20.961  23.545  1.00  0.00     0.075 C 
ATOM      9  C   UNL     1       7.948  21.660  25.801  1.00  0.00     0.012 A 
ATOM     10  C   UNL     1       6.545  20.970  23.983  1.00  0.00     0.042 C 
ATOM     11  C   UNL     1       8.232  22.188  27.052  1.00  0.00     0.010 A 
ATOM     12  C   UNL     1       6.640  21.691  25.293  1.00  0.00    -0.039 A 
ATOM     13  C   UNL     1       7.195  22.789  27.771  1.00  0.00     0.001 A 
ATOM     14  C   UNL     1       5.605  22.273  26.006  1.00  0.00     0.004 A 
ATOM     15  C   UNL     1       5.893  22.835  27.250  1.00  0.00     0.000 A 
ENDBRANCH   4   7
ENDBRANCH   3   4
TORSDOF 2
ENDMDL
MODEL 5
REMARK VINA RESULT:    -5.455      1.652      3.291
REMARK INTER + INTRA:          -6.441
REMARK INTER:                  -6.005
REMARK INTRA:                  -0.436
REMARK UNBOUND:                -0.348
REMARK SMILES C#CC[NH2+][C@@H]1CCc2ccccc21
REMARK SMILES IDX 1 1 2 2 3 3 4 4 5 7 6 8 13 9 7 10 12 11 8 12 11 13 9 14
REMARK SMILES IDX 10 15
REMARK H PARENT 4 5 4 6
ROOT
ATOM      1  C   UNL     1      12.709  21.394  26.007  1.00  0.00     0.010 C 
ATOM      2  C   UNL     1      12.265  21.761  24.952  1.00  0.00    -0.047 C 
ATOM      3  C   UNL     1      11.747  22.211  23.669  1.00  0.00     0.352 C 
ENDROOT
BRANCH   3   4
ATOM      4  N   UNL     1      10.263  22.096  23.620  1.00  0.00    -0.330 N 
ATOM      5  H   UNL     1       9.882  22.951  24.038  1.00  0.00     0.347 HD
ATOM      6  H   UNL     1       9.991  22.130  22.632  1.00  0.00     0.347 HD
BRANCH   4   7
ATOM      7  C   UNL     1       9.552  20.943  24.238  1.00  0.00     0.214 C 
ATOM      8  C   UNL     1       8.609  20.202  23.274  1.00  0.00     0.075 C 
ATOM      9  C   UNL     1       8.656  21.221  25.405  1.00  0.00     0.012 A 
ATOM     10  C   UNL     1       7.611  19.451  24.171  1.00  0.00     0.042 C 
ATOM     11  C   UNL     1       8.836  22.083  26.477  1.00  0.00     0.010 A 
ATOM     12  C   UNL     1       7.543  20.367  25.354  1.00  0.00    -0.039 A 
ATOM     13  C   UNL     1       7.862  22.112  27.477  1.00  0.00     0.001 A 
ATOM     14  C   UNL     1       6.581  20.382  26.349  1.00  0.00     0.004 A 
ATOM     15  C   UNL     1       6.740  21.271  27.411  1.00  0.00     0.000 A 
ENDBRANCH   4   7
ENDBRANCH   3   4
TORSDOF 2
ENDMDL
MODEL 6
REMARK VINA RESULT:    -5.438      1.732      3.194
REMARK INTER + INTRA:          -6.422
REMARK INTER:                  -5.952
REMARK INTRA:                  -0.471
REMARK UNBOUND:                -0.348
REMARK SMILES C#CC[NH2+][C@@H]1CCc2ccccc21
REMARK SMILES IDX 1 1 2 2 3 3 4 4 5 7 6 8 13 9 7 10 12 11 8 12 11 13 9 14
REMARK SMILES IDX 10 15
REMARK H PARENT 4 5 4 6
ROOT
ATOM      1  C   UNL     1       9.592  22.465  28.598  1.00  0.00     0.010 C 
ATOM      2  C   UNL     1       8.433  22.753  28.464  1.00  0.00    -0.047 C 
ATOM      3  C   UNL     1       7.025  23.096  28.325  1.00  0.00     0.352 C 
ENDROOT
BRANCH   3   4
ATOM      4  N   UNL     1       6.678  23.362  26.901  1.00  0.00    -0.330 N 
ATOM      5  H   UNL     1       5.723  23.732  26.888  1.00  0.00     0.347 HD
ATOM      6  H   UNL     1       7.275  24.135  26.585  1.00  0.00     0.347 HD
BRANCH   4   7
ATOM      7  C   UNL     1       6.755  22.292  25.868  1.00  0.00     0.214 C 
ATOM      8  C   UNL     1       6.389  20.892  26.392  1.00  0.00     0.075 C 
ATOM      9  C   UNL     1       8.079  22.049  25.214  1.00  0.00     0.012 A 
ATOM     10  C   UNL     1       7.026  19.903  25.401  1.00  0.00     0.042 C 
ATOM     11  C   UNL     1       9.041  22.956  24.791  1.00  0.00     0.010 A 
ATOM     12  C   UNL     1       8.230  20.677  24.957  1.00  0.00    -0.039 A 
ATOM     13  C   UNL     1      10.179  22.465  24.147  1.00  0.00     0.001 A 
ATOM     14  C   UNL     1       9.349  20.186  24.307  1.00  0.00     0.004 A 
ATOM     15  C   UNL     1      10.334  21.091  23.910  1.00  0.00     0.000 A 
ENDBRANCH   4   7
ENDBRANCH   3   4
TORSDOF 2
ENDMDL
MODEL 7
REMARK VINA RESULT:    -5.414      1.389      3.131
REMARK INTER + INTRA:          -6.395
REMARK INTER:                  -5.990
REMARK INTRA:                  -0.405
REMARK UNBOUND:                -0.348
REMARK SMILES C#CC[NH2+][C@@H]1CCc2ccccc21
REMARK SMILES IDX 1 1 2 2 3 3 4 4 5 7 6 8 13 9 7 10 12 11 8 12 11 13 9 14
REMARK SMILES IDX 10 15
REMARK H PARENT 4 5 4 6
ROOT
ATOM      1  C   UNL     1       8.131  22.070  29.137  1.00  0.00     0.010 C 
ATOM      2  C   UNL     1       8.343  22.925  28.319  1.00  0.00    -0.047 C 
ATOM      3  C   UNL     1       8.598  23.976  27.345  1.00  0.00     0.352 C 
ENDROOT
BRANCH   3   4
ATOM      4  N   UNL     1       8.730  23.412  25.973  1.00  0.00    -0.330 N 
ATOM      5  H   UNL     1       7.785  23.349  25.581  1.00  0.00     0.347 HD
ATOM      6  H   UNL     1       9.215  24.114  25.404  1.00  0.00     0.347 HD
BRANCH   4   7
ATOM      7  C   UNL     1       9.400  22.104  25.730  1.00  0.00     0.214 C 
ATOM      8  C   UNL     1      10.663  22.202  24.857  1.00  0.00     0.075 C 
ATOM      9  C   UNL     1       8.614  21.038  25.032  1.00  0.00     0.012 A 
ATOM     10  C   UNL     1      10.880  20.790  24.288  1.00  0.00     0.042 C 
ATOM     11  C   UNL     1       7.280  20.682  25.172  1.00  0.00     0.010 A 
ATOM     12  C   UNL     1       9.468  20.295  24.201  1.00  0.00    -0.039 A 
ATOM     13  C   UNL     1       6.802  19.596  24.434  1.00  0.00     0.001 A 
ATOM     14  C   UNL     1       9.003  19.210  23.478  1.00  0.00     0.004 A 
ATOM     15  C   UNL     1       7.655  18.869  23.591  1.00  0.00     0.000 A 
ENDBRANCH   4   7
ENDBRANCH   3   4
TORSDOF 2
ENDMDL
MODEL 8
REMARK VINA RESULT:    -5.244      2.090      3.761
REMARK INTER + INTRA:          -6.205
REMARK INTER:                  -5.775
REMARK INTRA:                  -0.430
REMARK UNBOUND:                -0.348
REMARK SMILES C#CC[NH2+][C@@H]1CCc2ccccc21
REMARK SMILES IDX 1 1 2 2 3 3 4 4 5 7 6 8 13 9 7 10 12 11 8 12 11 13 9 14
REMARK SMILES IDX 10 15
REMARK H PARENT 4 5 4 6
ROOT
ATOM      1  C   UNL     1       6.574  25.338  26.998  1.00  0.00     0.010 C 
ATOM      2  C   UNL     1       5.896  24.348  26.932  1.00  0.00    -0.047 C 
ATOM      3  C   UNL     1       5.056  23.161  26.859  1.00  0.00     0.352 C 
ENDROOT
BRANCH   3   4
ATOM      4  N   UNL     1       5.878  21.939  26.637  1.00  0.00    -0.330 N 
ATOM      5  H   UNL     1       6.568  21.899  27.394  1.00  0.00     0.347 HD
ATOM      6  H   UNL     1       5.262  21.132  26.786  1.00  0.00     0.347 HD
BRANCH   4   7
ATOM      7  C   UNL     1       6.606  21.712  25.358  1.00  0.00     0.214 C 
ATOM      8  C   UNL     1       6.283  20.366  24.686  1.00  0.00     0.075 C 
ATOM      9  C   UNL     1       8.102  21.692  25.403  1.00  0.00     0.012 A 
ATOM     10  C   UNL     1       7.465  20.083  23.744  1.00  0.00     0.042 C 
ATOM     11  C   UNL     1       8.980  22.492  26.122  1.00  0.00     0.010 A 
ATOM     12  C   UNL     1       8.586  20.751  24.481  1.00  0.00    -0.039 A 
ATOM     13  C   UNL     1      10.352  22.305  25.937  1.00  0.00     0.001 A 
ATOM     14  C   UNL     1       9.944  20.570  24.284  1.00  0.00     0.004 A 
ATOM     15  C   UNL     1      10.830  21.348  25.029  1.00  0.00     0.000 A 
ENDBRANCH   4   7
ENDBRANCH   3   4
TORSDOF 2
ENDMDL
MODEL 9
REMARK VINA RESULT:    -5.129      1.313      2.070
REMARK INTER + INTRA:          -6.077
REMARK INTER:                  -5.827
REMARK INTRA:                  -0.250
REMARK UNBOUND:                -0.348
REMARK SMILES C#CC[NH2+][C@@H]1CCc2ccccc21
REMARK SMILES IDX 1 1 2 2 3 3 4 4 5 7 6 8 13 9 7 10 12 11 8 12 11 13 9 14
REMARK SMILES IDX 10 15
REMARK H PARENT 4 5 4 6
ROOT
ATOM      1  C   UNL     1      12.598  21.298  26.423  1.00  0.00     0.010 C 
ATOM      2  C   UNL     1      12.126  22.234  25.835  1.00  0.00    -0.047 C 
ATOM      3  C   UNL     1      11.567  23.382  25.136  1.00  0.00     0.352 C 
ENDROOT
BRANCH   3   4
ATOM      4  N   UNL     1      10.503  22.961  24.182  1.00  0.00    -0.330 N 
ATOM      5  H   UNL     1      10.494  23.646  23.420  1.00  0.00     0.347 HD
ATOM      6  H   UNL     1      10.813  22.082  23.755  1.00  0.00     0.347 HD
BRANCH   4   7
ATOM      7  C   UNL     1       9.094  22.768  24.624  1.00  0.00     0.214 C 
ATOM      8  C   UNL     1       8.867  23.036  26.122  1.00  0.00     0.075 C 
ATOM      9  C   UNL     1       8.489  21.410  24.449  1.00  0.00     0.012 A 
ATOM     10  C   UNL     1       7.569  22.293  26.480  1.00  0.00     0.042 C 
ATOM     11  C   UNL     1       8.610  20.513  23.398  1.00  0.00     0.010 A 
ATOM     12  C   UNL     1       7.623  21.142  25.521  1.00  0.00    -0.039 A 
ATOM     13  C   UNL     1       7.884  19.321  23.456  1.00  0.00     0.001 A 
ATOM     14  C   UNL     1       6.892  19.969  25.578  1.00  0.00     0.004 A 
ATOM     15  C   UNL     1       7.035  19.049  24.540  1.00  0.00     0.000 A 
ENDBRANCH   4   7
ENDBRANCH   3   4
TORSDOF 2
ENDMDL
