MODEL 1
REMARK VINA RESULT:    -8.227      0.000      0.000
REMARK INTER + INTRA:         -19.148
REMARK INTER:                 -15.441
REMARK INTRA:                  -3.707
REMARK UNBOUND:                -3.707
REMARK SMILES C[C@@H]1O[C@@H](OC[C@H]2O[C@@H](Oc3ccc(-c4oc5cc(O)cc(O)c5c(=O)c4O)cc3)[C@H](O)[C@@H](O)[C@@H]2O)[C@H](O[C@@H]2O[C@H](CO)[C@@H](O)[C@H](O)[C@H]2O)[C@H](O)[C@H]1O
REMARK SMILES IDX 5 1 4 2 2 3 3 4 52 5 50 6 37 7 1 8 53 9 51 11 38 13 39 14
REMARK SMILES IDX 40 15 48 16 41 17 46 18 44 19 49 20 42 22 43 23 47 25 45 27
REMARK SMILES IDX 6 29 7 30 8 31 35 32 9 33 33 34 31 35 36 36 10 38 11 39
REMARK SMILES IDX 12 40 30 41 13 42 29 43 14 44 15 45 16 46 27 47 17 48 25 49
REMARK SMILES IDX 18 50 24 51 26 52 19 53 22 54 21 55 28 56 20 58 23 60 34 62
REMARK SMILES IDX 32 64
REMARK H PARENT 53 10 51 12 49 21 43 24 47 26 45 28 36 37 28 57 20 59 23 61
REMARK H PARENT 34 63 32 65
ROOT
ATOM      1  O   UNL     1       8.497  25.365  28.310  1.00  0.00    -0.347 OA
ENDROOT
BRANCH   1   2
ATOM      2  C   UNL     1       8.064  24.530  27.230  1.00  0.00     0.282 C 
ATOM      3  C   UNL     1       5.699  24.759  27.208  1.00  0.00     0.150 C 
ATOM      4  O   UNL     1       6.932  25.141  26.601  1.00  0.00    -0.344 OA
ATOM      5  C   UNL     1       5.402  23.287  26.877  1.00  0.00     0.174 C 
ATOM      6  C   UNL     1       6.662  22.412  27.006  1.00  0.00     0.180 C 
ATOM      7  C   UNL     1       7.779  23.110  27.793  1.00  0.00     0.209 C 
ATOM      8  C   UNL     1       4.605  25.678  26.676  1.00  0.00     0.041 C 
BRANCH   5   9
ATOM      9  O   UNL     1       4.380  22.804  27.756  1.00  0.00    -0.388 OA
ATOM     10  H   UNL     1       4.611  21.882  27.975  1.00  0.00     0.211 HD
ENDBRANCH   5   9
BRANCH   6  11
ATOM     11  O   UNL     1       7.130  22.035  25.700  1.00  0.00    -0.387 OA
ATOM     12  H   UNL     1       6.524  22.478  25.067  1.00  0.00     0.211 HD
ENDBRANCH   6  11
BRANCH   7  13
ATOM     13  O   UNL     1       8.955  22.275  27.684  1.00  0.00    -0.338 OA
BRANCH  13  14
ATOM     14  C   UNL     1      10.024  22.892  26.961  1.00  0.00     0.282 C 
ATOM     15  O   UNL     1      10.257  22.228  25.723  1.00  0.00    -0.341 OA
ATOM     16  C   UNL     1      11.278  22.803  27.852  1.00  0.00     0.202 C 
ATOM     17  C   UNL     1      11.312  22.839  24.970  1.00  0.00     0.178 C 
ATOM     18  C   UNL     1      12.484  23.374  27.111  1.00  0.00     0.179 C 
ATOM     19  C   UNL     1      12.638  22.717  25.739  1.00  0.00     0.177 C 
BRANCH  16  20
ATOM     20  O   UNL     1      11.116  23.523  29.084  1.00  0.00    -0.385 OA
ATOM     21  H   UNL     1      11.279  24.464  28.859  1.00  0.00     0.211 HD
ENDBRANCH  16  20
BRANCH  17  22
ATOM     22  C   UNL     1      11.409  22.179  23.588  1.00  0.00     0.191 C 
BRANCH  22  23
ATOM     23  O   UNL     1      12.531  21.304  23.499  1.00  0.00    -0.394 OA
ATOM     24  H   UNL     1      12.192  20.396  23.651  1.00  0.00     0.210 HD
ENDBRANCH  22  23
ENDBRANCH  17  22
BRANCH  18  25
ATOM     25  O   UNL     1      13.685  23.160  27.872  1.00  0.00    -0.387 OA
ATOM     26  H   UNL     1      14.326  22.791  27.231  1.00  0.00     0.211 HD
ENDBRANCH  18  25
BRANCH  19  27
ATOM     27  O   UNL     1      13.715  23.340  25.029  1.00  0.00    -0.387 OA
ATOM     28  H   UNL     1      13.743  24.258  25.373  1.00  0.00     0.211 HD
ENDBRANCH  19  27
ENDBRANCH  13  14
ENDBRANCH   7  13
ENDBRANCH   1   2
BRANCH   1  29
ATOM     29  C   UNL     1       9.359  26.431  27.892  1.00  0.00     0.198 C 
BRANCH  29  30
ATOM     30  C   UNL     1      10.594  26.518  28.805  1.00  0.00     0.180 C 
ATOM     31  O   UNL     1      11.717  26.982  28.051  1.00  0.00    -0.332 OA
ATOM     32  C   UNL     1      10.370  27.513  29.954  1.00  0.00     0.177 C 
ATOM     33  C   UNL     1      12.964  26.751  28.723  1.00  0.00     0.339 C 
ATOM     34  C   UNL     1      11.712  27.917  30.610  1.00  0.00     0.180 C 
ATOM     35  C   UNL     1      12.863  26.957  30.260  1.00  0.00     0.214 C 
BRANCH  32  36
ATOM     36  O   UNL     1       9.488  26.943  30.924  1.00  0.00    -0.387 OA
ATOM     37  H   UNL     1       9.935  27.000  31.788  1.00  0.00     0.211 HD
ENDBRANCH  32  36
BRANCH  33  38
ATOM     38  O   UNL     1      13.943  27.690  28.231  1.00  0.00    -0.462 OA
BRANCH  38  39
ATOM     39  C   UNL     1      14.394  27.306  26.997  1.00  0.00     0.123 A 
ATOM     40  C   UNL     1      13.868  27.889  25.848  1.00  0.00     0.047 A 
ATOM     41  C   UNL     1      15.413  26.362  26.913  1.00  0.00     0.047 A 
ATOM     42  C   UNL     1      14.321  27.477  24.596  1.00  0.00     0.016 A 
ATOM     43  C   UNL     1      15.867  25.949  25.657  1.00  0.00     0.016 A 
ATOM     44  C   UNL     1      15.309  26.487  24.487  1.00  0.00     0.021 A 
BRANCH  44  45
ATOM     45  C   UNL     1      15.774  26.030  23.169  1.00  0.00     0.180 A 
ATOM     46  O   UNL     1      15.258  24.795  22.803  1.00  0.00    -0.452 OA
ATOM     47  C   UNL     1      16.605  26.762  22.406  1.00  0.00     0.208 A 
ATOM     48  C   UNL     1      15.632  24.256  21.597  1.00  0.00     0.146 A 
ATOM     49  C   UNL     1      17.028  26.212  21.099  1.00  0.00     0.238 A 
ATOM     50  C   UNL     1      15.103  23.006  21.272  1.00  0.00     0.094 A 
ATOM     51  C   UNL     1      16.498  24.902  20.715  1.00  0.00     0.111 A 
ATOM     52  O   UNL     1      17.796  26.846  20.380  1.00  0.00    -0.285 OA
ATOM     53  C   UNL     1      15.450  22.416  20.060  1.00  0.00     0.123 A 
ATOM     54  C   UNL     1      16.837  24.299  19.500  1.00  0.00     0.134 A 
ATOM     55  C   UNL     1      16.312  23.053  19.172  1.00  0.00     0.093 A 
BRANCH  47  56
ATOM     56  O   UNL     1      17.086  28.015  22.756  1.00  0.00    -0.502 OA
ATOM     57  H   UNL     1      16.298  28.488  23.109  1.00  0.00     0.293 HD
ENDBRANCH  47  56
BRANCH  53  58
ATOM     58  O   UNL     1      14.958  21.196  19.700  1.00  0.00    -0.508 OA
ATOM     59  H   UNL     1      14.216  20.962  20.281  1.00  0.00     0.293 HD
ENDBRANCH  53  58
BRANCH  54  60
ATOM     60  O   UNL     1      17.680  24.878  18.589  1.00  0.00    -0.507 OA
ATOM     61  H   UNL     1      18.604  24.768  18.901  1.00  0.00     0.293 HD
ENDBRANCH  54  60
ENDBRANCH  44  45
ENDBRANCH  38  39
ENDBRANCH  33  38
BRANCH  34  62
ATOM     62  O   UNL     1      12.050  29.260  30.240  1.00  0.00    -0.387 OA
ATOM     63  H   UNL     1      12.192  29.284  29.272  1.00  0.00     0.211 HD
ENDBRANCH  34  62
BRANCH  35  64
ATOM     64  O   UNL     1      12.662  25.686  30.902  1.00  0.00    -0.384 OA
ATOM     65  H   UNL     1      13.269  25.044  30.492  1.00  0.00     0.211 HD
ENDBRANCH  35  64
ENDBRANCH  29  30
ENDBRANCH   1  29
TORSDOF 21
ENDMDL
MODEL 2
REMARK VINA RESULT:    -8.027      2.401      8.367
REMARK INTER + INTRA:         -18.773
REMARK INTER:                 -16.184
REMARK INTRA:                  -2.589
REMARK UNBOUND:                -3.707
REMARK SMILES C[C@@H]1O[C@@H](OC[C@H]2O[C@@H](Oc3ccc(-c4oc5cc(O)cc(O)c5c(=O)c4O)cc3)[C@H](O)[C@@H](O)[C@@H]2O)[C@H](O[C@@H]2O[C@H](CO)[C@@H](O)[C@H](O)[C@H]2O)[C@H](O)[C@H]1O
REMARK SMILES IDX 5 1 4 2 2 3 3 4 52 5 50 6 37 7 1 8 53 9 51 11 38 13 39 14
REMARK SMILES IDX 40 15 48 16 41 17 46 18 44 19 49 20 42 22 43 23 47 25 45 27
REMARK SMILES IDX 6 29 7 30 8 31 35 32 9 33 33 34 31 35 36 36 10 38 11 39
REMARK SMILES IDX 12 40 30 41 13 42 29 43 14 44 15 45 16 46 27 47 17 48 25 49
REMARK SMILES IDX 18 50 24 51 26 52 19 53 22 54 21 55 28 56 20 58 23 60 34 62
REMARK SMILES IDX 32 64
REMARK H PARENT 53 10 51 12 49 21 43 24 47 26 45 28 36 37 28 57 20 59 23 61
REMARK H PARENT 34 63 32 65
ROOT
ATOM      1  O   UNL     1      14.396  26.398  24.573  1.00  0.00    -0.347 OA
ENDROOT
BRANCH   1   2
ATOM      2  C   UNL     1      15.151  25.197  24.765  1.00  0.00     0.282 C 
ATOM      3  C   UNL     1      14.563  24.464  26.946  1.00  0.00     0.150 C 
ATOM      4  O   UNL     1      14.371  24.283  25.545  1.00  0.00    -0.344 OA
ATOM      5  C   UNL     1      15.971  23.983  27.335  1.00  0.00     0.174 C 
ATOM      6  C   UNL     1      17.029  24.447  26.317  1.00  0.00     0.180 C 
ATOM      7  C   UNL     1      16.512  25.572  25.411  1.00  0.00     0.209 C 
ATOM      8  C   UNL     1      13.486  23.671  27.678  1.00  0.00     0.041 C 
BRANCH   5   9
ATOM      9  O   UNL     1      16.296  24.481  28.637  1.00  0.00    -0.388 OA
ATOM     10  H   UNL     1      16.853  23.806  29.066  1.00  0.00     0.211 HD
ENDBRANCH   5   9
BRANCH   6  11
ATOM     11  O   UNL     1      17.467  23.329  25.526  1.00  0.00    -0.387 OA
ATOM     12  H   UNL     1      18.447  23.354  25.556  1.00  0.00     0.211 HD
ENDBRANCH   6  11
BRANCH   7  13
ATOM     13  O   UNL     1      17.517  25.786  24.393  1.00  0.00    -0.338 OA
BRANCH  13  14
ATOM     14  C   UNL     1      17.092  25.389  23.085  1.00  0.00     0.282 C 
ATOM     15  O   UNL     1      17.876  24.305  22.598  1.00  0.00    -0.341 OA
ATOM     16  C   UNL     1      17.260  26.616  22.168  1.00  0.00     0.202 C 
ATOM     17  C   UNL     1      17.458  23.875  21.296  1.00  0.00     0.178 C 
ATOM     18  C   UNL     1      16.899  26.245  20.732  1.00  0.00     0.179 C 
ATOM     19  C   UNL     1      17.677  25.009  20.279  1.00  0.00     0.177 C 
BRANCH  16  20
ATOM     20  O   UNL     1      16.430  27.714  22.579  1.00  0.00    -0.385 OA
ATOM     21  H   UNL     1      16.621  27.841  23.533  1.00  0.00     0.211 HD
ENDBRANCH  16  20
BRANCH  17  22
ATOM     22  C   UNL     1      18.233  22.613  20.895  1.00  0.00     0.191 C 
BRANCH  22  23
ATOM     23  O   UNL     1      17.437  21.734  20.105  1.00  0.00    -0.394 OA
ATOM     24  H   UNL     1      17.162  22.242  19.311  1.00  0.00     0.210 HD
ENDBRANCH  22  23
ENDBRANCH  17  22
BRANCH  18  25
ATOM     25  O   UNL     1      17.194  27.337  19.845  1.00  0.00    -0.387 OA
ATOM     26  H   UNL     1      16.840  27.058  18.976  1.00  0.00     0.211 HD
ENDBRANCH  18  25
BRANCH  19  27
ATOM     27  O   UNL     1      17.247  24.627  18.967  1.00  0.00    -0.387 OA
ATOM     28  H   UNL     1      18.076  24.458  18.471  1.00  0.00     0.211 HD
ENDBRANCH  19  27
ENDBRANCH  13  14
ENDBRANCH   7  13
ENDBRANCH   1   2
BRANCH   1  29
ATOM     29  C   UNL     1      14.915  27.518  25.301  1.00  0.00     0.198 C 
BRANCH  29  30
ATOM     30  C   UNL     1      13.789  28.244  26.056  1.00  0.00     0.180 C 
ATOM     31  O   UNL     1      12.917  27.284  26.657  1.00  0.00    -0.332 OA
ATOM     32  C   UNL     1      14.349  29.126  27.182  1.00  0.00     0.177 C 
ATOM     33  C   UNL     1      11.666  27.856  27.066  1.00  0.00     0.339 C 
ATOM     34  C   UNL     1      13.240  29.515  28.188  1.00  0.00     0.180 C 
ATOM     35  C   UNL     1      11.821  29.295  27.631  1.00  0.00     0.214 C 
BRANCH  32  36
ATOM     36  O   UNL     1      14.956  30.295  26.627  1.00  0.00    -0.387 OA
ATOM     37  H   UNL     1      14.687  31.050  27.181  1.00  0.00     0.211 HD
ENDBRANCH  32  36
BRANCH  33  38
ATOM     38  O   UNL     1      11.099  27.045  28.115  1.00  0.00    -0.462 OA
BRANCH  38  39
ATOM     39  C   UNL     1      10.468  25.952  27.585  1.00  0.00     0.123 A 
ATOM     40  C   UNL     1      10.120  24.881  28.403  1.00  0.00     0.047 A 
ATOM     41  C   UNL     1      10.141  25.949  26.232  1.00  0.00     0.047 A 
ATOM     42  C   UNL     1       9.496  23.764  27.849  1.00  0.00     0.016 A 
ATOM     43  C   UNL     1       9.515  24.829  25.678  1.00  0.00     0.016 A 
ATOM     44  C   UNL     1       9.207  23.718  26.478  1.00  0.00     0.021 A 
BRANCH  44  45
ATOM     45  C   UNL     1       8.570  22.533  25.882  1.00  0.00     0.180 A 
ATOM     46  O   UNL     1       9.476  21.659  25.299  1.00  0.00    -0.452 OA
ATOM     47  C   UNL     1       7.241  22.334  25.926  1.00  0.00     0.208 A 
ATOM     48  C   UNL     1       8.997  20.521  24.697  1.00  0.00     0.146 A 
ATOM     49  C   UNL     1       6.691  21.117  25.288  1.00  0.00     0.238 A 
ATOM     50  C   UNL     1       9.938  19.675  24.109  1.00  0.00     0.094 A 
ATOM     51  C   UNL     1       7.642  20.197  24.657  1.00  0.00     0.111 A 
ATOM     52  O   UNL     1       5.481  20.906  25.297  1.00  0.00    -0.285 OA
ATOM     53  C   UNL     1       9.507  18.507  23.486  1.00  0.00     0.123 A 
ATOM     54  C   UNL     1       7.221  19.022  24.030  1.00  0.00     0.134 A 
ATOM     55  C   UNL     1       8.155  18.174  23.442  1.00  0.00     0.093 A 
BRANCH  47  56
ATOM     56  O   UNL     1       6.343  23.188  26.547  1.00  0.00    -0.502 OA
ATOM     57  H   UNL     1       5.726  23.457  25.828  1.00  0.00     0.293 HD
ENDBRANCH  47  56
BRANCH  53  58
ATOM     58  O   UNL     1      10.389  17.650  22.897  1.00  0.00    -0.508 OA
ATOM     59  H   UNL     1      11.209  17.624  23.417  1.00  0.00     0.293 HD
ENDBRANCH  53  58
BRANCH  54  60
ATOM     60  O   UNL     1       5.907  18.644  23.956  1.00  0.00    -0.507 OA
ATOM     61  H   UNL     1       5.829  17.898  23.322  1.00  0.00     0.293 HD
ENDBRANCH  54  60
ENDBRANCH  44  45
ENDBRANCH  38  39
ENDBRANCH  33  38
BRANCH  34  62
ATOM     62  O   UNL     1      13.416  28.788  29.412  1.00  0.00    -0.387 OA
ATOM     63  H   UNL     1      12.968  29.282  30.128  1.00  0.00     0.211 HD
ENDBRANCH  34  62
BRANCH  35  64
ATOM     64  O   UNL     1      11.543  30.251  26.595  1.00  0.00    -0.384 OA
ATOM     65  H   UNL     1      10.669  30.039  26.219  1.00  0.00     0.211 HD
ENDBRANCH  35  64
ENDBRANCH  29  30
ENDBRANCH   1  29
TORSDOF 21
ENDMDL
MODEL 3
REMARK VINA RESULT:    -7.948      2.587     11.263
REMARK INTER + INTRA:         -18.624
REMARK INTER:                 -16.307
REMARK INTRA:                  -2.317
REMARK UNBOUND:                -3.707
REMARK SMILES C[C@@H]1O[C@@H](OC[C@H]2O[C@@H](Oc3ccc(-c4oc5cc(O)cc(O)c5c(=O)c4O)cc3)[C@H](O)[C@@H](O)[C@@H]2O)[C@H](O[C@@H]2O[C@H](CO)[C@@H](O)[C@H](O)[C@H]2O)[C@H](O)[C@H]1O
REMARK SMILES IDX 5 1 4 2 2 3 3 4 52 5 50 6 37 7 1 8 53 9 51 11 38 13 39 14
REMARK SMILES IDX 40 15 48 16 41 17 46 18 44 19 49 20 42 22 43 23 47 25 45 27
REMARK SMILES IDX 6 29 7 30 8 31 35 32 9 33 33 34 31 35 36 36 10 38 11 39
REMARK SMILES IDX 12 40 30 41 13 42 29 43 14 44 15 45 16 46 27 47 17 48 25 49
REMARK SMILES IDX 18 50 24 51 26 52 19 53 22 54 21 55 28 56 20 58 23 60 34 62
REMARK SMILES IDX 32 64
REMARK H PARENT 53 10 51 12 49 21 43 24 47 26 45 28 36 37 28 57 20 59 23 61
REMARK H PARENT 34 63 32 65
ROOT
ATOM      1  O   UNL     1      14.740  25.514  24.463  1.00  0.00    -0.347 OA
ENDROOT
BRANCH   1   2
ATOM      2  C   UNL     1      16.111  25.875  24.662  1.00  0.00     0.282 C 
ATOM      3  C   UNL     1      16.055  28.207  25.114  1.00  0.00     0.150 C 
ATOM      4  O   UNL     1      16.176  26.897  25.664  1.00  0.00    -0.344 OA
ATOM      5  C   UNL     1      17.331  28.550  24.326  1.00  0.00     0.174 C 
ATOM      6  C   UNL     1      17.802  27.363  23.467  1.00  0.00     0.180 C 
ATOM      7  C   UNL     1      16.711  26.298  23.293  1.00  0.00     0.209 C 
ATOM      8  C   UNL     1      15.835  29.184  26.263  1.00  0.00     0.041 C 
BRANCH   5   9
ATOM      9  O   UNL     1      17.078  29.685  23.491  1.00  0.00    -0.388 OA
ATOM     10  H   UNL     1      16.317  29.454  22.926  1.00  0.00     0.211 HD
ENDBRANCH   5   9
BRANCH   6  11
ATOM     11  O   UNL     1      18.981  26.780  24.047  1.00  0.00    -0.387 OA
ATOM     12  H   UNL     1      19.332  26.165  23.367  1.00  0.00     0.211 HD
ENDBRANCH   6  11
BRANCH   7  13
ATOM     13  O   UNL     1      17.327  25.167  22.637  1.00  0.00    -0.338 OA
BRANCH  13  14
ATOM     14  C   UNL     1      16.665  24.783  21.428  1.00  0.00     0.282 C 
ATOM     15  O   UNL     1      15.876  23.614  21.624  1.00  0.00    -0.341 OA
ATOM     16  C   UNL     1      17.764  24.509  20.382  1.00  0.00     0.202 C 
ATOM     17  C   UNL     1      15.186  23.219  20.431  1.00  0.00     0.178 C 
ATOM     18  C   UNL     1      17.133  24.016  19.083  1.00  0.00     0.179 C 
ATOM     19  C   UNL     1      16.204  22.830  19.346  1.00  0.00     0.177 C 
BRANCH  16  20
ATOM     20  O   UNL     1      18.540  25.682  20.097  1.00  0.00    -0.385 OA
ATOM     21  H   UNL     1      18.148  26.394  20.647  1.00  0.00     0.211 HD
ENDBRANCH  16  20
BRANCH  17  22
ATOM     22  C   UNL     1      14.238  22.054  20.746  1.00  0.00     0.191 C 
BRANCH  22  23
ATOM     23  O   UNL     1      14.825  20.795  20.424  1.00  0.00    -0.394 OA
ATOM     24  H   UNL     1      14.146  20.285  19.934  1.00  0.00     0.210 HD
ENDBRANCH  22  23
ENDBRANCH  17  22
BRANCH  18  25
ATOM     25  O   UNL     1      18.154  23.616  18.153  1.00  0.00    -0.387 OA
ATOM     26  H   UNL     1      18.997  23.862  18.586  1.00  0.00     0.211 HD
ENDBRANCH  18  25
BRANCH  19  27
ATOM     27  O   UNL     1      15.553  22.452  18.127  1.00  0.00    -0.387 OA
ATOM     28  H   UNL     1      14.683  22.904  18.159  1.00  0.00     0.211 HD
ENDBRANCH  19  27
ENDBRANCH  13  14
ENDBRANCH   7  13
ENDBRANCH   1   2
BRANCH   1  29
ATOM     29  C   UNL     1      13.942  25.638  25.647  1.00  0.00     0.198 C 
BRANCH  29  30
ATOM     30  C   UNL     1      13.192  24.327  25.935  1.00  0.00     0.180 C 
ATOM     31  O   UNL     1      11.837  24.442  25.494  1.00  0.00    -0.332 OA
ATOM     32  C   UNL     1      13.822  23.145  25.182  1.00  0.00     0.177 C 
ATOM     33  C   UNL     1      10.991  23.419  26.041  1.00  0.00     0.339 C 
ATOM     34  C   UNL     1      12.853  21.940  25.127  1.00  0.00     0.180 C 
ATOM     35  C   UNL     1      11.707  22.044  26.151  1.00  0.00     0.214 C 
BRANCH  32  36
ATOM     36  O   UNL     1      15.052  22.772  25.807  1.00  0.00    -0.387 OA
ATOM     37  H   UNL     1      15.455  22.075  25.257  1.00  0.00     0.211 HD
ENDBRANCH  32  36
BRANCH  33  38
ATOM     38  O   UNL     1       9.852  23.238  25.174  1.00  0.00    -0.462 OA
BRANCH  38  39
ATOM     39  C   UNL     1       8.691  23.488  25.854  1.00  0.00     0.123 A 
ATOM     40  C   UNL     1       7.785  22.458  26.091  1.00  0.00     0.047 A 
ATOM     41  C   UNL     1       8.455  24.769  26.343  1.00  0.00     0.047 A 
ATOM     42  C   UNL     1       6.596  22.727  26.768  1.00  0.00     0.016 A 
ATOM     43  C   UNL     1       7.263  25.038  27.022  1.00  0.00     0.016 A 
ATOM     44  C   UNL     1       6.313  24.024  27.220  1.00  0.00     0.021 A 
BRANCH  44  45
ATOM     45  C   UNL     1       5.050  24.321  27.914  1.00  0.00     0.180 A 
ATOM     46  O   UNL     1       4.022  24.676  27.053  1.00  0.00    -0.452 OA
ATOM     47  C   UNL     1       4.927  24.233  29.250  1.00  0.00     0.208 A 
ATOM     48  C   UNL     1       2.796  24.990  27.586  1.00  0.00     0.146 A 
ATOM     49  C   UNL     1       3.619  24.564  29.858  1.00  0.00     0.238 A 
ATOM     50  C   UNL     1       1.793  25.356  26.689  1.00  0.00     0.094 A 
ATOM     51  C   UNL     1       2.534  24.954  28.955  1.00  0.00     0.111 A 
ATOM     52  O   UNL     1       3.471  24.507  31.077  1.00  0.00    -0.285 OA
ATOM     53  C   UNL     1       0.530  25.683  27.176  1.00  0.00     0.123 A 
ATOM     54  C   UNL     1       1.262  25.283  29.433  1.00  0.00     0.134 A 
ATOM     55  C   UNL     1       0.258  25.649  28.542  1.00  0.00     0.093 A 
BRANCH  47  56
ATOM     56  O   UNL     1       5.945  23.837  30.105  1.00  0.00    -0.502 OA
ATOM     57  H   UNL     1       6.152  22.916  29.826  1.00  0.00     0.293 HD
ENDBRANCH  47  56
BRANCH  53  58
ATOM     58  O   UNL     1      -0.481  26.047  26.338  1.00  0.00    -0.508 OA
ATOM     59  H   UNL     1      -0.912  26.847  26.680  1.00  0.00     0.293 HD
ENDBRANCH  53  58
BRANCH  54  60
ATOM     60  O   UNL     1       0.937  25.268  30.763  1.00  0.00    -0.507 OA
ATOM     61  H   UNL     1       0.710  24.348  31.021  1.00  0.00     0.293 HD
ENDBRANCH  54  60
ENDBRANCH  44  45
ENDBRANCH  38  39
ENDBRANCH  33  38
BRANCH  34  62
ATOM     62  O   UNL     1      12.327  21.798  23.800  1.00  0.00    -0.387 OA
ATOM     63  H   UNL     1      11.847  22.620  23.573  1.00  0.00     0.211 HD
ENDBRANCH  34  62
BRANCH  35  64
ATOM     64  O   UNL     1      12.218  21.873  27.484  1.00  0.00    -0.384 OA
ATOM     65  H   UNL     1      12.577  20.970  27.553  1.00  0.00     0.211 HD
ENDBRANCH  35  64
ENDBRANCH  29  30
ENDBRANCH   1  29
TORSDOF 21
ENDMDL
MODEL 4
REMARK VINA RESULT:    -7.894      2.205     10.595
REMARK INTER + INTRA:         -18.523
REMARK INTER:                 -16.008
REMARK INTRA:                  -2.515
REMARK UNBOUND:                -3.707
REMARK SMILES C[C@@H]1O[C@@H](OC[C@H]2O[C@@H](Oc3ccc(-c4oc5cc(O)cc(O)c5c(=O)c4O)cc3)[C@H](O)[C@@H](O)[C@@H]2O)[C@H](O[C@@H]2O[C@H](CO)[C@@H](O)[C@H](O)[C@H]2O)[C@H](O)[C@H]1O
REMARK SMILES IDX 5 1 4 2 2 3 3 4 52 5 50 6 37 7 1 8 53 9 51 11 38 13 39 14
REMARK SMILES IDX 40 15 48 16 41 17 46 18 44 19 49 20 42 22 43 23 47 25 45 27
REMARK SMILES IDX 6 29 7 30 8 31 35 32 9 33 33 34 31 35 36 36 10 38 11 39
REMARK SMILES IDX 12 40 30 41 13 42 29 43 14 44 15 45 16 46 27 47 17 48 25 49
REMARK SMILES IDX 18 50 24 51 26 52 19 53 22 54 21 55 28 56 20 58 23 60 34 62
REMARK SMILES IDX 32 64
REMARK H PARENT 53 10 51 12 49 21 43 24 47 26 45 28 36 37 28 57 20 59 23 61
REMARK H PARENT 34 63 32 65
ROOT
ATOM      1  O   UNL     1      16.911  24.512  24.888  1.00  0.00    -0.347 OA
ENDROOT
BRANCH   1   2
ATOM      2  C   UNL     1      17.922  25.297  24.247  1.00  0.00     0.282 C 
ATOM      3  C   UNL     1      17.397  27.539  24.833  1.00  0.00     0.150 C 
ATOM      4  O   UNL     1      18.237  26.415  25.086  1.00  0.00    -0.344 OA
ATOM      5  C   UNL     1      17.756  28.146  23.466  1.00  0.00     0.174 C 
ATOM      6  C   UNL     1      17.974  27.055  22.401  1.00  0.00     0.180 C 
ATOM      7  C   UNL     1      17.411  25.696  22.835  1.00  0.00     0.209 C 
ATOM      8  C   UNL     1      17.604  28.548  25.957  1.00  0.00     0.041 C 
BRANCH   5   9
ATOM      9  O   UNL     1      16.706  29.028  23.052  1.00  0.00    -0.388 OA
ATOM     10  H   UNL     1      17.043  29.936  23.159  1.00  0.00     0.211 HD
ENDBRANCH   5   9
BRANCH   6  11
ATOM     11  O   UNL     1      19.375  26.943  22.099  1.00  0.00    -0.387 OA
ATOM     12  H   UNL     1      19.754  26.388  22.814  1.00  0.00     0.211 HD
ENDBRANCH   6  11
BRANCH   7  13
ATOM     13  O   UNL     1      17.839  24.729  21.848  1.00  0.00    -0.338 OA
BRANCH  13  14
ATOM     14  C   UNL     1      16.817  24.391  20.905  1.00  0.00     0.282 C 
ATOM     15  O   UNL     1      16.051  23.279  21.355  1.00  0.00    -0.341 OA
ATOM     16  C   UNL     1      17.525  24.045  19.581  1.00  0.00     0.202 C 
ATOM     17  C   UNL     1      15.007  22.931  20.436  1.00  0.00     0.178 C 
ATOM     18  C   UNL     1      16.499  23.597  18.544  1.00  0.00     0.179 C 
ATOM     19  C   UNL     1      15.620  22.476  19.101  1.00  0.00     0.177 C 
BRANCH  16  20
ATOM     20  O   UNL     1      18.252  25.164  19.051  1.00  0.00    -0.385 OA
ATOM     21  H   UNL     1      18.816  24.794  18.338  1.00  0.00     0.211 HD
ENDBRANCH  16  20
BRANCH  17  22
ATOM     22  C   UNL     1      14.127  21.833  21.046  1.00  0.00     0.191 C 
BRANCH  22  23
ATOM     23  O   UNL     1      14.513  20.537  20.594  1.00  0.00    -0.394 OA
ATOM     24  H   UNL     1      14.292  20.495  19.639  1.00  0.00     0.210 HD
ENDBRANCH  22  23
ENDBRANCH  17  22
BRANCH  18  25
ATOM     25  O   UNL     1      17.161  23.130  17.357  1.00  0.00    -0.387 OA
ATOM     26  H   UNL     1      18.030  23.581  17.361  1.00  0.00     0.211 HD
ENDBRANCH  18  25
BRANCH  19  27
ATOM     27  O   UNL     1      14.606  22.144  18.144  1.00  0.00    -0.387 OA
ATOM     28  H   UNL     1      14.141  21.372  18.531  1.00  0.00     0.211 HD
ENDBRANCH  19  27
ENDBRANCH  13  14
ENDBRANCH   7  13
ENDBRANCH   1   2
BRANCH   1  29
ATOM     29  C   UNL     1      15.580  24.966  24.613  1.00  0.00     0.198 C 
BRANCH  29  30
ATOM     30  C   UNL     1      14.758  25.053  25.910  1.00  0.00     0.180 C 
ATOM     31  O   UNL     1      13.592  24.234  25.796  1.00  0.00    -0.332 OA
ATOM     32  C   UNL     1      15.562  24.544  27.117  1.00  0.00     0.177 C 
ATOM     33  C   UNL     1      12.608  24.534  26.797  1.00  0.00     0.339 C 
ATOM     34  C   UNL     1      14.632  24.238  28.315  1.00  0.00     0.180 C 
ATOM     35  C   UNL     1      13.240  24.880  28.174  1.00  0.00     0.214 C 
BRANCH  32  36
ATOM     36  O   UNL     1      16.551  25.509  27.483  1.00  0.00    -0.387 OA
ATOM     37  H   UNL     1      17.422  25.110  27.307  1.00  0.00     0.211 HD
ENDBRANCH  32  36
BRANCH  33  38
ATOM     38  O   UNL     1      11.768  23.378  26.992  1.00  0.00    -0.462 OA
BRANCH  38  39
ATOM     39  C   UNL     1      10.448  23.736  26.959  1.00  0.00     0.123 A 
ATOM     40  C   UNL     1       9.605  23.401  28.015  1.00  0.00     0.047 A 
ATOM     41  C   UNL     1       9.974  24.477  25.880  1.00  0.00     0.047 A 
ATOM     42  C   UNL     1       8.257  23.753  27.961  1.00  0.00     0.016 A 
ATOM     43  C   UNL     1       8.624  24.831  25.827  1.00  0.00     0.016 A 
ATOM     44  C   UNL     1       7.749  24.453  26.857  1.00  0.00     0.021 A 
BRANCH  44  45
ATOM     45  C   UNL     1       6.323  24.808  26.783  1.00  0.00     0.180 A 
ATOM     46  O   UNL     1       6.089  26.168  26.922  1.00  0.00    -0.452 OA
ATOM     47  C   UNL     1       5.363  23.888  26.584  1.00  0.00     0.208 A 
ATOM     48  C   UNL     1       4.793  26.620  26.884  1.00  0.00     0.146 A 
ATOM     49  C   UNL     1       3.955  24.340  26.536  1.00  0.00     0.238 A 
ATOM     50  C   UNL     1       4.598  27.992  27.042  1.00  0.00     0.094 A 
ATOM     51  C   UNL     1       3.701  25.774  26.697  1.00  0.00     0.111 A 
ATOM     52  O   UNL     1       3.049  23.527  26.368  1.00  0.00    -0.285 OA
ATOM     53  C   UNL     1       3.303  28.504  27.010  1.00  0.00     0.123 A 
ATOM     54  C   UNL     1       2.405  26.299  26.666  1.00  0.00     0.134 A 
ATOM     55  C   UNL     1       2.206  27.667  26.823  1.00  0.00     0.093 A 
BRANCH  47  56
ATOM     56  O   UNL     1       5.604  22.534  26.403  1.00  0.00    -0.502 OA
ATOM     57  H   UNL     1       6.279  22.314  27.085  1.00  0.00     0.293 HD
ENDBRANCH  47  56
BRANCH  53  58
ATOM     58  O   UNL     1       3.064  29.837  27.160  1.00  0.00    -0.508 OA
ATOM     59  H   UNL     1       2.662  29.998  28.030  1.00  0.00     0.293 HD
ENDBRANCH  53  58
BRANCH  54  60
ATOM     60  O   UNL     1       1.290  25.525  26.486  1.00  0.00    -0.507 OA
ATOM     61  H   UNL     1       0.508  26.113  26.406  1.00  0.00     0.293 HD
ENDBRANCH  54  60
ENDBRANCH  44  45
ENDBRANCH  38  39
ENDBRANCH  33  38
BRANCH  34  62
ATOM     62  O   UNL     1      14.513  22.819  28.488  1.00  0.00    -0.387 OA
ATOM     63  H   UNL     1      15.414  22.442  28.548  1.00  0.00     0.211 HD
ENDBRANCH  34  62
BRANCH  35  64
ATOM     64  O   UNL     1      13.337  26.308  28.313  1.00  0.00    -0.384 OA
ATOM     65  H   UNL     1      12.471  26.690  28.081  1.00  0.00     0.211 HD
ENDBRANCH  35  64
ENDBRANCH  29  30
ENDBRANCH   1  29
TORSDOF 21
ENDMDL
MODEL 5
REMARK VINA RESULT:    -7.887      2.368     10.984
REMARK INTER + INTRA:         -18.510
REMARK INTER:                 -16.160
REMARK INTRA:                  -2.349
REMARK UNBOUND:                -3.707
REMARK SMILES C[C@@H]1O[C@@H](OC[C@H]2O[C@@H](Oc3ccc(-c4oc5cc(O)cc(O)c5c(=O)c4O)cc3)[C@H](O)[C@@H](O)[C@@H]2O)[C@H](O[C@@H]2O[C@H](CO)[C@@H](O)[C@H](O)[C@H]2O)[C@H](O)[C@H]1O
REMARK SMILES IDX 5 1 4 2 2 3 3 4 52 5 50 6 37 7 1 8 53 9 51 11 38 13 39 14
REMARK SMILES IDX 40 15 48 16 41 17 46 18 44 19 49 20 42 22 43 23 47 25 45 27
REMARK SMILES IDX 6 29 7 30 8 31 35 32 9 33 33 34 31 35 36 36 10 38 11 39
REMARK SMILES IDX 12 40 30 41 13 42 29 43 14 44 15 45 16 46 27 47 17 48 25 49
REMARK SMILES IDX 18 50 24 51 26 52 19 53 22 54 21 55 28 56 20 58 23 60 34 62
REMARK SMILES IDX 32 64
REMARK H PARENT 53 10 51 12 49 21 43 24 47 26 45 28 36 37 28 57 20 59 23 61
REMARK H PARENT 34 63 32 65
ROOT
ATOM      1  O   UNL     1      16.834  24.643  24.973  1.00  0.00    -0.347 OA
ENDROOT
BRANCH   1   2
ATOM      2  C   UNL     1      17.863  25.418  24.348  1.00  0.00     0.282 C 
ATOM      3  C   UNL     1      17.350  27.665  24.923  1.00  0.00     0.150 C 
ATOM      4  O   UNL     1      18.175  26.533  25.191  1.00  0.00    -0.344 OA
ATOM      5  C   UNL     1      17.738  28.267  23.562  1.00  0.00     0.174 C 
ATOM      6  C   UNL     1      17.963  27.174  22.502  1.00  0.00     0.180 C 
ATOM      7  C   UNL     1      17.380  25.820  22.928  1.00  0.00     0.209 C 
ATOM      8  C   UNL     1      17.548  28.673  26.050  1.00  0.00     0.041 C 
BRANCH   5   9
ATOM      9  O   UNL     1      16.703  29.159  23.130  1.00  0.00    -0.388 OA
ATOM     10  H   UNL     1      16.223  29.441  23.930  1.00  0.00     0.211 HD
ENDBRANCH   5   9
BRANCH   6  11
ATOM     11  O   UNL     1      19.367  27.048  22.223  1.00  0.00    -0.387 OA
ATOM     12  H   UNL     1      19.728  26.483  22.940  1.00  0.00     0.211 HD
ENDBRANCH   6  11
BRANCH   7  13
ATOM     13  O   UNL     1      17.814  24.848  21.949  1.00  0.00    -0.338 OA
BRANCH  13  14
ATOM     14  C   UNL     1      16.798  24.503  21.003  1.00  0.00     0.282 C 
ATOM     15  O   UNL     1      16.055  23.369  21.438  1.00  0.00    -0.341 OA
ATOM     16  C   UNL     1      17.511  24.189  19.673  1.00  0.00     0.202 C 
ATOM     17  C   UNL     1      15.017  23.013  20.515  1.00  0.00     0.178 C 
ATOM     18  C   UNL     1      16.492  23.734  18.631  1.00  0.00     0.179 C 
ATOM     19  C   UNL     1      15.637  22.588  19.174  1.00  0.00     0.177 C 
BRANCH  16  20
ATOM     20  O   UNL     1      18.214  25.329  19.157  1.00  0.00    -0.385 OA
ATOM     21  H   UNL     1      19.033  25.396  19.694  1.00  0.00     0.211 HD
ENDBRANCH  16  20
BRANCH  17  22
ATOM     22  C   UNL     1      14.160  21.889  21.112  1.00  0.00     0.191 C 
BRANCH  22  23
ATOM     23  O   UNL     1      14.567  20.608  20.637  1.00  0.00    -0.394 OA
ATOM     24  H   UNL     1      15.547  20.589  20.684  1.00  0.00     0.210 HD
ENDBRANCH  22  23
ENDBRANCH  17  22
BRANCH  18  25
ATOM     25  O   UNL     1      17.162  23.297  17.437  1.00  0.00    -0.387 OA
ATOM     26  H   UNL     1      17.203  22.322  17.516  1.00  0.00     0.211 HD
ENDBRANCH  18  25
BRANCH  19  27
ATOM     27  O   UNL     1      14.628  22.249  18.214  1.00  0.00    -0.387 OA
ATOM     28  H   UNL     1      14.753  21.291  18.048  1.00  0.00     0.211 HD
ENDBRANCH  19  27
ENDBRANCH  13  14
ENDBRANCH   7  13
ENDBRANCH   1   2
BRANCH   1  29
ATOM     29  C   UNL     1      15.511  25.064  24.617  1.00  0.00     0.198 C 
BRANCH  29  30
ATOM     30  C   UNL     1      14.587  25.045  25.847  1.00  0.00     0.180 C 
ATOM     31  O   UNL     1      13.568  24.058  25.667  1.00  0.00    -0.332 OA
ATOM     32  C   UNL     1      15.362  24.678  27.122  1.00  0.00     0.177 C 
ATOM     33  C   UNL     1      12.476  24.221  26.584  1.00  0.00     0.339 C 
ATOM     34  C   UNL     1      14.398  24.252  28.255  1.00  0.00     0.180 C 
ATOM     35  C   UNL     1      12.941  24.676  27.995  1.00  0.00     0.214 C 
BRANCH  32  36
ATOM     36  O   UNL     1      16.165  25.786  27.537  1.00  0.00    -0.387 OA
ATOM     37  H   UNL     1      16.279  25.714  28.502  1.00  0.00     0.211 HD
ENDBRANCH  32  36
BRANCH  33  38
ATOM     38  O   UNL     1      11.805  22.954  26.745  1.00  0.00    -0.462 OA
BRANCH  38  39
ATOM     39  C   UNL     1      10.501  23.149  27.114  1.00  0.00     0.123 A 
ATOM     40  C   UNL     1       9.651  23.899  26.306  1.00  0.00     0.047 A 
ATOM     41  C   UNL     1      10.030  22.550  28.278  1.00  0.00     0.047 A 
ATOM     42  C   UNL     1       8.330  24.107  26.700  1.00  0.00     0.016 A 
ATOM     43  C   UNL     1       8.706  22.759  28.673  1.00  0.00     0.016 A 
ATOM     44  C   UNL     1       7.851  23.558  27.898  1.00  0.00     0.021 A 
BRANCH  44  45
ATOM     45  C   UNL     1       6.465  23.794  28.333  1.00  0.00     0.180 A 
ATOM     46  O   UNL     1       6.374  24.318  29.614  1.00  0.00    -0.452 OA
ATOM     47  C   UNL     1       5.410  23.533  27.541  1.00  0.00     0.208 A 
ATOM     48  C   UNL     1       5.129  24.568  30.136  1.00  0.00     0.146 A 
ATOM     49  C   UNL     1       4.052  23.792  28.072  1.00  0.00     0.238 A 
ATOM     50  C   UNL     1       5.079  25.081  31.432  1.00  0.00     0.094 A 
ATOM     51  C   UNL     1       3.950  24.331  29.430  1.00  0.00     0.111 A 
ATOM     52  O   UNL     1       3.063  23.554  27.383  1.00  0.00    -0.285 OA
ATOM     53  C   UNL     1       3.841  25.353  32.009  1.00  0.00     0.123 A 
ATOM     54  C   UNL     1       2.713  24.609  30.018  1.00  0.00     0.134 A 
ATOM     55  C   UNL     1       2.658  25.121  31.311  1.00  0.00     0.093 A 
BRANCH  47  56
ATOM     56  O   UNL     1       5.506  23.048  26.245  1.00  0.00    -0.502 OA
ATOM     57  H   UNL     1       5.231  22.106  26.317  1.00  0.00     0.293 HD
ENDBRANCH  47  56
BRANCH  53  58
ATOM     58  O   UNL     1       3.743  25.855  33.272  1.00  0.00    -0.508 OA
ATOM     59  H   UNL     1       4.118  25.218  33.903  1.00  0.00     0.293 HD
ENDBRANCH  53  58
BRANCH  54  60
ATOM     60  O   UNL     1       1.519  24.402  29.381  1.00  0.00    -0.507 OA
ATOM     61  H   UNL     1       1.695  24.225  28.432  1.00  0.00     0.293 HD
ENDBRANCH  54  60
ENDBRANCH  44  45
ENDBRANCH  38  39
ENDBRANCH  33  38
BRANCH  34  62
ATOM     62  O   UNL     1      14.478  22.834  28.455  1.00  0.00    -0.387 OA
ATOM     63  H   UNL     1      15.270  22.504  27.984  1.00  0.00     0.211 HD
ENDBRANCH  34  62
BRANCH  35  64
ATOM     64  O   UNL     1      12.814  26.104  28.105  1.00  0.00    -0.384 OA
ATOM     65  H   UNL     1      12.541  26.311  29.018  1.00  0.00     0.211 HD
ENDBRANCH  35  64
ENDBRANCH  29  30
ENDBRANCH   1  29
TORSDOF 21
ENDMDL
MODEL 6
REMARK VINA RESULT:    -7.843      1.842      4.656
REMARK INTER + INTRA:         -18.429
REMARK INTER:                 -15.854
REMARK INTRA:                  -2.575
REMARK UNBOUND:                -3.707
REMARK SMILES C[C@@H]1O[C@@H](OC[C@H]2O[C@@H](Oc3ccc(-c4oc5cc(O)cc(O)c5c(=O)c4O)cc3)[C@H](O)[C@@H](O)[C@@H]2O)[C@H](O[C@@H]2O[C@H](CO)[C@@H](O)[C@H](O)[C@H]2O)[C@H](O)[C@H]1O
REMARK SMILES IDX 5 1 4 2 2 3 3 4 52 5 50 6 37 7 1 8 53 9 51 11 38 13 39 14
REMARK SMILES IDX 40 15 48 16 41 17 46 18 44 19 49 20 42 22 43 23 47 25 45 27
REMARK SMILES IDX 6 29 7 30 8 31 35 32 9 33 33 34 31 35 36 36 10 38 11 39
REMARK SMILES IDX 12 40 30 41 13 42 29 43 14 44 15 45 16 46 27 47 17 48 25 49
REMARK SMILES IDX 18 50 24 51 26 52 19 53 22 54 21 55 28 56 20 58 23 60 34 62
REMARK SMILES IDX 32 64
REMARK H PARENT 53 10 51 12 49 21 43 24 47 26 45 28 36 37 28 57 20 59 23 61
REMARK H PARENT 34 63 32 65
ROOT
ATOM      1  O   UNL     1       9.102  23.757  25.497  1.00  0.00    -0.347 OA
ENDROOT
BRANCH   1   2
ATOM      2  C   UNL     1       8.579  22.673  26.273  1.00  0.00     0.282 C 
ATOM      3  C   UNL     1       8.136  20.961  24.686  1.00  0.00     0.150 C 
ATOM      4  O   UNL     1       9.021  21.439  25.697  1.00  0.00    -0.344 OA
ATOM      5  C   UNL     1       6.831  20.476  25.340  1.00  0.00     0.174 C 
ATOM      6  C   UNL     1       6.348  21.448  26.432  1.00  0.00     0.180 C 
ATOM      7  C   UNL     1       7.033  22.817  26.338  1.00  0.00     0.209 C 
ATOM      8  C   UNL     1       8.834  19.830  23.940  1.00  0.00     0.041 C 
BRANCH   5   9
ATOM      9  O   UNL     1       5.823  20.336  24.332  1.00  0.00    -0.388 OA
ATOM     10  H   UNL     1       5.971  21.051  23.685  1.00  0.00     0.211 HD
ENDBRANCH   5   9
BRANCH   6  11
ATOM     11  O   UNL     1       6.564  20.869  27.730  1.00  0.00    -0.387 OA
ATOM     12  H   UNL     1       7.536  20.880  27.864  1.00  0.00     0.211 HD
ENDBRANCH   6  11
BRANCH   7  13
ATOM     13  O   UNL     1       6.641  23.565  27.511  1.00  0.00    -0.338 OA
BRANCH  13  14
ATOM     14  C   UNL     1       5.597  24.511  27.259  1.00  0.00     0.282 C 
ATOM     15  O   UNL     1       6.057  25.846  27.445  1.00  0.00    -0.341 OA
ATOM     16  C   UNL     1       4.461  24.201  28.253  1.00  0.00     0.202 C 
ATOM     17  C   UNL     1       5.034  26.814  27.179  1.00  0.00     0.178 C 
ATOM     18  C   UNL     1       3.338  25.223  28.095  1.00  0.00     0.179 C 
ATOM     19  C   UNL     1       3.886  26.648  28.189  1.00  0.00     0.177 C 
BRANCH  16  20
ATOM     20  O   UNL     1       3.914  22.888  28.053  1.00  0.00    -0.385 OA
ATOM     21  H   UNL     1       4.270  22.343  28.788  1.00  0.00     0.211 HD
ENDBRANCH  16  20
BRANCH  17  22
ATOM     22  C   UNL     1       5.631  28.226  27.245  1.00  0.00     0.191 C 
BRANCH  22  23
ATOM     23  O   UNL     1       7.039  28.214  27.022  1.00  0.00    -0.394 OA
ATOM     24  H   UNL     1       7.399  27.462  27.539  1.00  0.00     0.210 HD
ENDBRANCH  22  23
ENDBRANCH  17  22
BRANCH  18  25
ATOM     25  O   UNL     1       2.344  25.033  29.116  1.00  0.00    -0.387 OA
ATOM     26  H   UNL     1       1.633  25.668  28.893  1.00  0.00     0.211 HD
ENDBRANCH  18  25
BRANCH  19  27
ATOM     27  O   UNL     1       2.830  27.583  27.940  1.00  0.00    -0.387 OA
ATOM     28  H   UNL     1       2.853  28.196  28.706  1.00  0.00     0.211 HD
ENDBRANCH  19  27
ENDBRANCH  13  14
ENDBRANCH   7  13
ENDBRANCH   1   2
BRANCH   1  29
ATOM     29  C   UNL     1      10.526  23.886  25.591  1.00  0.00     0.198 C 
BRANCH  29  30
ATOM     30  C   UNL     1      10.911  24.797  26.768  1.00  0.00     0.180 C 
ATOM     31  O   UNL     1      12.305  25.112  26.697  1.00  0.00    -0.332 OA
ATOM     32  C   UNL     1      10.138  26.124  26.725  1.00  0.00     0.177 C 
ATOM     33  C   UNL     1      12.812  25.647  27.928  1.00  0.00     0.339 C 
ATOM     34  C   UNL     1      10.806  27.187  27.629  1.00  0.00     0.180 C 
ATOM     35  C   UNL     1      11.793  26.579  28.641  1.00  0.00     0.214 C 
BRANCH  32  36
ATOM     36  O   UNL     1       8.782  25.909  27.120  1.00  0.00    -0.387 OA
ATOM     37  H   UNL     1       8.556  24.990  26.886  1.00  0.00     0.211 HD
ENDBRANCH  32  36
BRANCH  33  38
ATOM     38  O   UNL     1      13.987  26.435  27.648  1.00  0.00    -0.462 OA
BRANCH  38  39
ATOM     39  C   UNL     1      14.490  26.121  26.415  1.00  0.00     0.123 A 
ATOM     40  C   UNL     1      14.188  26.917  25.314  1.00  0.00     0.047 A 
ATOM     41  C   UNL     1      15.340  25.026  26.288  1.00  0.00     0.047 A 
ATOM     42  C   UNL     1      14.689  26.577  24.058  1.00  0.00     0.016 A 
ATOM     43  C   UNL     1      15.842  24.686  25.030  1.00  0.00     0.016 A 
ATOM     44  C   UNL     1      15.503  25.445  23.899  1.00  0.00     0.021 A 
BRANCH  44  45
ATOM     45  C   UNL     1      16.015  25.067  22.574  1.00  0.00     0.180 A 
ATOM     46  O   UNL     1      15.214  24.142  21.920  1.00  0.00    -0.452 OA
ATOM     47  C   UNL     1      17.143  25.592  22.062  1.00  0.00     0.208 A 
ATOM     48  C   UNL     1      15.598  23.701  20.677  1.00  0.00     0.146 A 
ATOM     49  C   UNL     1      17.585  25.139  20.725  1.00  0.00     0.238 A 
ATOM     50  C   UNL     1      14.774  22.759  20.059  1.00  0.00     0.094 A 
ATOM     51  C   UNL     1      16.751  24.151  20.036  1.00  0.00     0.111 A 
ATOM     52  O   UNL     1      18.617  25.587  20.230  1.00  0.00    -0.285 OA
ATOM     53  C   UNL     1      15.117  22.279  18.798  1.00  0.00     0.123 A 
ATOM     54  C   UNL     1      17.085  23.663  18.770  1.00  0.00     0.134 A 
ATOM     55  C   UNL     1      16.266  22.725  18.149  1.00  0.00     0.093 A 
BRANCH  47  56
ATOM     56  O   UNL     1      17.919  26.548  22.701  1.00  0.00    -0.502 OA
ATOM     57  H   UNL     1      18.139  27.195  21.992  1.00  0.00     0.293 HD
ENDBRANCH  47  56
BRANCH  53  58
ATOM     58  O   UNL     1      14.343  21.360  18.155  1.00  0.00    -0.508 OA
ATOM     59  H   UNL     1      13.608  21.812  17.709  1.00  0.00     0.293 HD
ENDBRANCH  53  58
BRANCH  54  60
ATOM     60  O   UNL     1      18.200  24.063  18.085  1.00  0.00    -0.507 OA
ATOM     61  H   UNL     1      18.018  24.932  17.666  1.00  0.00     0.293 HD
ENDBRANCH  54  60
ENDBRANCH  44  45
ENDBRANCH  38  39
ENDBRANCH  33  38
BRANCH  34  62
ATOM     62  O   UNL     1      11.462  28.173  26.820  1.00  0.00    -0.387 OA
ATOM     63  H   UNL     1      12.225  27.747  26.379  1.00  0.00     0.211 HD
ENDBRANCH  34  62
BRANCH  35  64
ATOM     64  O   UNL     1      11.080  25.834  29.643  1.00  0.00    -0.384 OA
ATOM     65  H   UNL     1      10.937  24.933  29.300  1.00  0.00     0.211 HD
ENDBRANCH  35  64
ENDBRANCH  29  30
ENDBRANCH   1  29
TORSDOF 21
ENDMDL
MODEL 7
REMARK VINA RESULT:    -7.838      3.451      7.069
REMARK INTER + INTRA:         -18.419
REMARK INTER:                 -15.133
REMARK INTRA:                  -3.285
REMARK UNBOUND:                -3.707
REMARK SMILES C[C@@H]1O[C@@H](OC[C@H]2O[C@@H](Oc3ccc(-c4oc5cc(O)cc(O)c5c(=O)c4O)cc3)[C@H](O)[C@@H](O)[C@@H]2O)[C@H](O[C@@H]2O[C@H](CO)[C@@H](O)[C@H](O)[C@H]2O)[C@H](O)[C@H]1O
REMARK SMILES IDX 5 1 4 2 2 3 3 4 52 5 50 6 37 7 1 8 53 9 51 11 38 13 39 14
REMARK SMILES IDX 40 15 48 16 41 17 46 18 44 19 49 20 42 22 43 23 47 25 45 27
REMARK SMILES IDX 6 29 7 30 8 31 35 32 9 33 33 34 31 35 36 36 10 38 11 39
REMARK SMILES IDX 12 40 30 41 13 42 29 43 14 44 15 45 16 46 27 47 17 48 25 49
REMARK SMILES IDX 18 50 24 51 26 52 19 53 22 54 21 55 28 56 20 58 23 60 34 62
REMARK SMILES IDX 32 64
REMARK H PARENT 53 10 51 12 49 21 43 24 47 26 45 28 36 37 28 57 20 59 23 61
REMARK H PARENT 34 63 32 65
ROOT
ATOM      1  O   UNL     1      11.513  26.255  30.012  1.00  0.00    -0.347 OA
ENDROOT
BRANCH   1   2
ATOM      2  C   UNL     1      10.922  27.413  29.412  1.00  0.00     0.282 C 
ATOM      3  C   UNL     1      10.011  28.633  31.235  1.00  0.00     0.150 C 
ATOM      4  O   UNL     1      11.082  28.525  30.301  1.00  0.00    -0.344 OA
ATOM      5  C   UNL     1       8.737  29.084  30.501  1.00  0.00     0.174 C 
ATOM      6  C   UNL     1       8.560  28.340  29.164  1.00  0.00     0.180 C 
ATOM      7  C   UNL     1       9.442  27.088  29.072  1.00  0.00     0.209 C 
ATOM      8  C   UNL     1      10.417  29.638  32.307  1.00  0.00     0.041 C 
BRANCH   5   9
ATOM      9  O   UNL     1       7.601  28.852  31.342  1.00  0.00    -0.388 OA
ATOM     10  H   UNL     1       7.935  28.424  32.152  1.00  0.00     0.211 HD
ENDBRANCH   5   9
BRANCH   6  11
ATOM     11  O   UNL     1       8.840  29.231  28.071  1.00  0.00    -0.387 OA
ATOM     12  H   UNL     1       8.593  30.125  28.391  1.00  0.00     0.211 HD
ENDBRANCH   6  11
BRANCH   7  13
ATOM     13  O   UNL     1       9.327  26.592  27.719  1.00  0.00    -0.338 OA
BRANCH  13  14
ATOM     14  C   UNL     1       8.349  25.558  27.575  1.00  0.00     0.282 C 
ATOM     15  O   UNL     1       7.038  26.103  27.459  1.00  0.00    -0.341 OA
ATOM     16  C   UNL     1       8.443  24.672  28.833  1.00  0.00     0.202 C 
ATOM     17  C   UNL     1       6.041  25.087  27.295  1.00  0.00     0.178 C 
ATOM     18  C   UNL     1       7.371  23.587  28.787  1.00  0.00     0.179 C 
ATOM     19  C   UNL     1       5.990  24.200  28.550  1.00  0.00     0.177 C 
BRANCH  16  20
ATOM     20  O   UNL     1       9.728  24.041  28.952  1.00  0.00    -0.385 OA
ATOM     21  H   UNL     1      10.312  24.714  29.363  1.00  0.00     0.211 HD
ENDBRANCH  16  20
BRANCH  17  22
ATOM     22  C   UNL     1       4.679  25.740  27.022  1.00  0.00     0.191 C 
BRANCH  22  23
ATOM     23  O   UNL     1       3.804  24.861  26.320  1.00  0.00    -0.394 OA
ATOM     24  H   UNL     1       3.699  24.063  26.881  1.00  0.00     0.210 HD
ENDBRANCH  22  23
ENDBRANCH  17  22
BRANCH  18  25
ATOM     25  O   UNL     1       7.353  22.850  30.021  1.00  0.00    -0.387 OA
ATOM     26  H   UNL     1       7.136  23.515  30.706  1.00  0.00     0.211 HD
ENDBRANCH  18  25
BRANCH  19  27
ATOM     27  O   UNL     1       5.020  23.153  28.413  1.00  0.00    -0.387 OA
ATOM     28  H   UNL     1       4.154  23.612  28.433  1.00  0.00     0.211 HD
ENDBRANCH  19  27
ENDBRANCH  13  14
ENDBRANCH   7  13
ENDBRANCH   1   2
BRANCH   1  29
ATOM     29  C   UNL     1      12.545  26.569  30.956  1.00  0.00     0.198 C 
BRANCH  29  30
ATOM     30  C   UNL     1      13.934  26.395  30.319  1.00  0.00     0.180 C 
ATOM     31  O   UNL     1      13.794  25.864  28.999  1.00  0.00    -0.332 OA
ATOM     32  C   UNL     1      14.665  27.741  30.197  1.00  0.00     0.177 C 
ATOM     33  C   UNL     1      15.027  25.343  28.481  1.00  0.00     0.339 C 
ATOM     34  C   UNL     1      15.846  27.644  29.202  1.00  0.00     0.180 C 
ATOM     35  C   UNL     1      16.259  26.192  28.900  1.00  0.00     0.214 C 
BRANCH  32  36
ATOM     36  O   UNL     1      15.125  28.161  31.483  1.00  0.00    -0.387 OA
ATOM     37  H   UNL     1      14.398  28.655  31.902  1.00  0.00     0.211 HD
ENDBRANCH  32  36
BRANCH  33  38
ATOM     38  O   UNL     1      14.973  25.352  27.040  1.00  0.00    -0.462 OA
BRANCH  38  39
ATOM     39  C   UNL     1      13.963  24.543  26.595  1.00  0.00     0.123 A 
ATOM     40  C   UNL     1      13.193  24.923  25.499  1.00  0.00     0.047 A 
ATOM     41  C   UNL     1      13.749  23.319  27.224  1.00  0.00     0.047 A 
ATOM     42  C   UNL     1      12.154  24.100  25.066  1.00  0.00     0.016 A 
ATOM     43  C   UNL     1      12.708  22.495  26.789  1.00  0.00     0.016 A 
ATOM     44  C   UNL     1      11.887  22.888  25.720  1.00  0.00     0.021 A 
BRANCH  44  45
ATOM     45  C   UNL     1      10.778  22.026  25.284  1.00  0.00     0.180 A 
ATOM     46  O   UNL     1       9.532  22.499  25.670  1.00  0.00    -0.452 OA
ATOM     47  C   UNL     1      10.978  20.905  24.570  1.00  0.00     0.208 A 
ATOM     48  C   UNL     1       8.418  21.771  25.332  1.00  0.00     0.146 A 
ATOM     49  C   UNL     1       9.799  20.096  24.188  1.00  0.00     0.238 A 
ATOM     50  C   UNL     1       7.185  22.272  25.751  1.00  0.00     0.094 A 
ATOM     51  C   UNL     1       8.482  20.582  24.606  1.00  0.00     0.111 A 
ATOM     52  O   UNL     1       9.942  19.058  23.546  1.00  0.00    -0.285 OA
ATOM     53  C   UNL     1       6.024  21.573  25.434  1.00  0.00     0.123 A 
ATOM     54  C   UNL     1       7.309  19.890  24.292  1.00  0.00     0.134 A 
ATOM     55  C   UNL     1       6.077  20.385  24.707  1.00  0.00     0.093 A 
BRANCH  47  56
ATOM     56  O   UNL     1      12.221  20.457  24.150  1.00  0.00    -0.502 OA
ATOM     57  H   UNL     1      12.508  21.124  23.485  1.00  0.00     0.293 HD
ENDBRANCH  47  56
BRANCH  53  58
ATOM     58  O   UNL     1       4.797  22.023  25.821  1.00  0.00    -0.508 OA
ATOM     59  H   UNL     1       4.484  22.692  25.190  1.00  0.00     0.293 HD
ENDBRANCH  53  58
BRANCH  54  60
ATOM     60  O   UNL     1       7.300  18.719  23.582  1.00  0.00    -0.507 OA
ATOM     61  H   UNL     1       7.313  18.932  22.624  1.00  0.00     0.293 HD
ENDBRANCH  54  60
ENDBRANCH  44  45
ENDBRANCH  38  39
ENDBRANCH  33  38
BRANCH  34  62
ATOM     62  O   UNL     1      15.518  28.334  27.988  1.00  0.00    -0.387 OA
ATOM     63  H   UNL     1      14.870  29.036  28.201  1.00  0.00     0.211 HD
ENDBRANCH  34  62
BRANCH  35  64
ATOM     64  O   UNL     1      16.878  25.603  30.056  1.00  0.00    -0.384 OA
ATOM     65  H   UNL     1      16.604  26.117  30.837  1.00  0.00     0.211 HD
ENDBRANCH  35  64
ENDBRANCH  29  30
ENDBRANCH   1  29
TORSDOF 21
ENDMDL
MODEL 8
REMARK VINA RESULT:    -7.817      2.604     11.345
REMARK INTER + INTRA:         -18.379
REMARK INTER:                 -16.100
REMARK INTRA:                  -2.279
REMARK UNBOUND:                -3.707
REMARK SMILES C[C@@H]1O[C@@H](OC[C@H]2O[C@@H](Oc3ccc(-c4oc5cc(O)cc(O)c5c(=O)c4O)cc3)[C@H](O)[C@@H](O)[C@@H]2O)[C@H](O[C@@H]2O[C@H](CO)[C@@H](O)[C@H](O)[C@H]2O)[C@H](O)[C@H]1O
REMARK SMILES IDX 5 1 4 2 2 3 3 4 52 5 50 6 37 7 1 8 53 9 51 11 38 13 39 14
REMARK SMILES IDX 40 15 48 16 41 17 46 18 44 19 49 20 42 22 43 23 47 25 45 27
REMARK SMILES IDX 6 29 7 30 8 31 35 32 9 33 33 34 31 35 36 36 10 38 11 39
REMARK SMILES IDX 12 40 30 41 13 42 29 43 14 44 15 45 16 46 27 47 17 48 25 49
REMARK SMILES IDX 18 50 24 51 26 52 19 53 22 54 21 55 28 56 20 58 23 60 34 62
REMARK SMILES IDX 32 64
REMARK H PARENT 53 10 51 12 49 21 43 24 47 26 45 28 36 37 28 57 20 59 23 61
REMARK H PARENT 34 63 32 65
ROOT
ATOM      1  O   UNL     1      14.457  25.656  24.370  1.00  0.00    -0.347 OA
ENDROOT
BRANCH   1   2
ATOM      2  C   UNL     1      15.808  26.068  24.606  1.00  0.00     0.282 C 
ATOM      3  C   UNL     1      15.663  28.413  24.962  1.00  0.00     0.150 C 
ATOM      4  O   UNL     1      15.803  27.130  25.568  1.00  0.00    -0.344 OA
ATOM      5  C   UNL     1      16.958  28.766  24.211  1.00  0.00     0.174 C 
ATOM      6  C   UNL     1      17.498  27.562  23.417  1.00  0.00     0.180 C 
ATOM      7  C   UNL     1      16.447  26.457  23.245  1.00  0.00     0.209 C 
ATOM      8  C   UNL     1      15.369  29.426  26.063  1.00  0.00     0.041 C 
BRANCH   5   9
ATOM      9  O   UNL     1      16.703  29.860  23.322  1.00  0.00    -0.388 OA
ATOM     10  H   UNL     1      15.761  29.806  23.073  1.00  0.00     0.211 HD
ENDBRANCH   5   9
BRANCH   6  11
ATOM     11  O   UNL     1      18.671  27.040  24.064  1.00  0.00    -0.387 OA
ATOM     12  H   UNL     1      18.456  27.020  25.022  1.00  0.00     0.211 HD
ENDBRANCH   6  11
BRANCH   7  13
ATOM     13  O   UNL     1      17.123  25.322  22.658  1.00  0.00    -0.338 OA
BRANCH  13  14
ATOM     14  C   UNL     1      16.526  24.876  21.437  1.00  0.00     0.282 C 
ATOM     15  O   UNL     1      15.760  23.693  21.641  1.00  0.00    -0.341 OA
ATOM     16  C   UNL     1      17.677  24.596  20.450  1.00  0.00     0.202 C 
ATOM     17  C   UNL     1      15.135  23.236  20.435  1.00  0.00     0.178 C 
ATOM     18  C   UNL     1      17.118  24.039  19.144  1.00  0.00     0.179 C 
ATOM     19  C   UNL     1      16.210  22.837  19.411  1.00  0.00     0.177 C 
BRANCH  16  20
ATOM     20  O   UNL     1      18.433  25.780  20.156  1.00  0.00    -0.385 OA
ATOM     21  H   UNL     1      18.240  25.985  19.215  1.00  0.00     0.211 HD
ENDBRANCH  16  20
BRANCH  17  22
ATOM     22  C   UNL     1      14.206  22.056  20.751  1.00  0.00     0.191 C 
BRANCH  22  23
ATOM     23  O   UNL     1      14.806  20.808  20.416  1.00  0.00    -0.394 OA
ATOM     24  H   UNL     1      14.217  20.380  19.759  1.00  0.00     0.210 HD
ENDBRANCH  22  23
ENDBRANCH  17  22
BRANCH  18  25
ATOM     25  O   UNL     1      18.189  23.635  18.275  1.00  0.00    -0.387 OA
ATOM     26  H   UNL     1      18.049  24.144  17.451  1.00  0.00     0.211 HD
ENDBRANCH  18  25
BRANCH  19  27
ATOM     27  O   UNL     1      15.624  22.398  18.180  1.00  0.00    -0.387 OA
ATOM     28  H   UNL     1      14.776  22.887  18.118  1.00  0.00     0.211 HD
ENDBRANCH  19  27
ENDBRANCH  13  14
ENDBRANCH   7  13
ENDBRANCH   1   2
BRANCH   1  29
ATOM     29  C   UNL     1      13.644  25.672  25.549  1.00  0.00     0.198 C 
BRANCH  29  30
ATOM     30  C   UNL     1      13.117  24.262  25.864  1.00  0.00     0.180 C 
ATOM     31  O   UNL     1      11.708  24.210  25.626  1.00  0.00    -0.332 OA
ATOM     32  C   UNL     1      13.775  23.205  24.963  1.00  0.00     0.177 C 
ATOM     33  C   UNL     1      11.090  23.063  26.226  1.00  0.00     0.339 C 
ATOM     34  C   UNL     1      12.970  21.884  24.975  1.00  0.00     0.180 C 
ATOM     35  C   UNL     1      11.984  21.794  26.154  1.00  0.00     0.214 C 
BRANCH  32  36
ATOM     36  O   UNL     1      15.121  22.977  25.386  1.00  0.00    -0.387 OA
ATOM     37  H   UNL     1      15.105  22.224  26.005  1.00  0.00     0.211 HD
ENDBRANCH  32  36
BRANCH  33  38
ATOM     38  O   UNL     1       9.868  22.764  25.519  1.00  0.00    -0.462 OA
BRANCH  38  39
ATOM     39  C   UNL     1       8.782  23.082  26.289  1.00  0.00     0.123 A 
ATOM     40  C   UNL     1       8.271  24.377  26.275  1.00  0.00     0.047 A 
ATOM     41  C   UNL     1       8.172  22.086  27.045  1.00  0.00     0.047 A 
ATOM     42  C   UNL     1       7.176  24.696  27.077  1.00  0.00     0.016 A 
ATOM     43  C   UNL     1       7.075  22.406  27.848  1.00  0.00     0.016 A 
ATOM     44  C   UNL     1       6.581  23.719  27.889  1.00  0.00     0.021 A 
BRANCH  44  45
ATOM     45  C   UNL     1       5.441  24.053  28.756  1.00  0.00     0.180 A 
ATOM     46  O   UNL     1       5.821  24.559  29.991  1.00  0.00    -0.452 OA
ATOM     47  C   UNL     1       4.166  23.891  28.361  1.00  0.00     0.208 A 
ATOM     48  C   UNL     1       4.843  24.895  30.894  1.00  0.00     0.146 A 
ATOM     49  C   UNL     1       3.086  24.244  29.309  1.00  0.00     0.238 A 
ATOM     50  C   UNL     1       5.266  25.385  32.129  1.00  0.00     0.094 A 
ATOM     51  C   UNL     1       3.482  24.764  30.620  1.00  0.00     0.111 A 
ATOM     52  O   UNL     1       1.909  24.098  28.989  1.00  0.00    -0.285 OA
ATOM     53  C   UNL     1       4.315  25.742  33.081  1.00  0.00     0.123 A 
ATOM     54  C   UNL     1       2.536  25.126  31.583  1.00  0.00     0.134 A 
ATOM     55  C   UNL     1       2.953  25.617  32.817  1.00  0.00     0.093 A 
BRANCH  47  56
ATOM     56  O   UNL     1       3.789  23.425  27.110  1.00  0.00    -0.502 OA
ATOM     57  H   UNL     1       4.640  23.281  26.637  1.00  0.00     0.293 HD
ENDBRANCH  47  56
BRANCH  53  58
ATOM     58  O   UNL     1       4.680  26.226  34.302  1.00  0.00    -0.508 OA
ATOM     59  H   UNL     1       4.530  25.545  34.978  1.00  0.00     0.293 HD
ENDBRANCH  53  58
BRANCH  54  60
ATOM     60  O   UNL     1       1.186  25.025  31.379  1.00  0.00    -0.507 OA
ATOM     61  H   UNL     1       0.984  25.307  30.461  1.00  0.00     0.293 HD
ENDBRANCH  54  60
ENDBRANCH  44  45
ENDBRANCH  38  39
ENDBRANCH  33  38
BRANCH  34  62
ATOM     62  O   UNL     1      12.277  21.725  23.730  1.00  0.00    -0.387 OA
ATOM     63  H   UNL     1      11.496  21.156  23.885  1.00  0.00     0.211 HD
ENDBRANCH  34  62
BRANCH  35  64
ATOM     64  O   UNL     1      12.702  21.641  27.390  1.00  0.00    -0.384 OA
ATOM     65  H   UNL     1      12.963  22.529  27.695  1.00  0.00     0.211 HD
ENDBRANCH  35  64
ENDBRANCH  29  30
ENDBRANCH   1  29
TORSDOF 21
ENDMDL
MODEL 9
REMARK VINA RESULT:    -7.570      1.843      2.649
REMARK INTER + INTRA:         -17.916
REMARK INTER:                 -15.499
REMARK INTRA:                  -2.417
REMARK UNBOUND:                -3.707
REMARK SMILES C[C@@H]1O[C@@H](OC[C@H]2O[C@@H](Oc3ccc(-c4oc5cc(O)cc(O)c5c(=O)c4O)cc3)[C@H](O)[C@@H](O)[C@@H]2O)[C@H](O[C@@H]2O[C@H](CO)[C@@H](O)[C@H](O)[C@H]2O)[C@H](O)[C@H]1O
REMARK SMILES IDX 5 1 4 2 2 3 3 4 52 5 50 6 37 7 1 8 53 9 51 11 38 13 39 14
REMARK SMILES IDX 40 15 48 16 41 17 46 18 44 19 49 20 42 22 43 23 47 25 45 27
REMARK SMILES IDX 6 29 7 30 8 31 35 32 9 33 33 34 31 35 36 36 10 38 11 39
REMARK SMILES IDX 12 40 30 41 13 42 29 43 14 44 15 45 16 46 27 47 17 48 25 49
REMARK SMILES IDX 18 50 24 51 26 52 19 53 22 54 21 55 28 56 20 58 23 60 34 62
REMARK SMILES IDX 32 64
REMARK H PARENT 53 10 51 12 49 21 43 24 47 26 45 28 36 37 28 57 20 59 23 61
REMARK H PARENT 34 63 32 65
ROOT
ATOM      1  O   UNL     1       9.496  26.222  27.421  1.00  0.00    -0.347 OA
ENDROOT
BRANCH   1   2
ATOM      2  C   UNL     1       8.177  25.678  27.302  1.00  0.00     0.282 C 
ATOM      3  C   UNL     1       7.421  25.450  29.542  1.00  0.00     0.150 C 
ATOM      4  O   UNL     1       7.359  26.222  28.344  1.00  0.00    -0.344 OA
ATOM      5  C   UNL     1       6.691  24.114  29.326  1.00  0.00     0.174 C 
ATOM      6  C   UNL     1       7.035  23.495  27.958  1.00  0.00     0.180 C 
ATOM      7  C   UNL     1       8.282  24.128  27.329  1.00  0.00     0.209 C 
ATOM      8  C   UNL     1       6.773  26.260  30.660  1.00  0.00     0.041 C 
BRANCH   5   9
ATOM      9  O   UNL     1       7.049  23.207  30.375  1.00  0.00    -0.388 OA
ATOM     10  H   UNL     1       7.400  23.748  31.106  1.00  0.00     0.211 HD
ENDBRANCH   5   9
BRANCH   6  11
ATOM     11  O   UNL     1       5.910  23.619  27.072  1.00  0.00    -0.387 OA
ATOM     12  H   UNL     1       5.132  23.321  27.591  1.00  0.00     0.211 HD
ENDBRANCH   6  11
BRANCH   7  13
ATOM     13  O   UNL     1       8.389  23.602  25.986  1.00  0.00    -0.338 OA
BRANCH  13  14
ATOM     14  C   UNL     1       9.413  22.613  25.845  1.00  0.00     0.282 C 
ATOM     15  O   UNL     1      10.621  23.189  25.359  1.00  0.00    -0.341 OA
ATOM     16  C   UNL     1       8.888  21.564  24.845  1.00  0.00     0.202 C 
ATOM     17  C   UNL     1      11.669  22.221  25.226  1.00  0.00     0.178 C 
ATOM     18  C   UNL     1       9.963  20.512  24.582  1.00  0.00     0.179 C 
ATOM     19  C   UNL     1      11.279  21.173  24.170  1.00  0.00     0.177 C 
BRANCH  16  20
ATOM     20  O   UNL     1       7.709  20.902  25.328  1.00  0.00    -0.385 OA
ATOM     21  H   UNL     1       7.766  19.984  24.983  1.00  0.00     0.211 HD
ENDBRANCH  16  20
BRANCH  17  22
ATOM     22  C   UNL     1      12.979  22.927  24.849  1.00  0.00     0.191 C 
BRANCH  22  23
ATOM     23  O   UNL     1      13.406  22.578  23.535  1.00  0.00    -0.394 OA
ATOM     24  H   UNL     1      12.783  23.010  22.913  1.00  0.00     0.210 HD
ENDBRANCH  22  23
ENDBRANCH  17  22
BRANCH  18  25
ATOM     25  O   UNL     1       9.540  19.616  23.541  1.00  0.00    -0.387 OA
ATOM     26  H   UNL     1       9.990  18.770  23.741  1.00  0.00     0.211 HD
ENDBRANCH  18  25
BRANCH  19  27
ATOM     27  O   UNL     1      12.293  20.171  24.026  1.00  0.00    -0.387 OA
ATOM     28  H   UNL     1      11.937  19.387  24.496  1.00  0.00     0.211 HD
ENDBRANCH  19  27
ENDBRANCH  13  14
ENDBRANCH   7  13
ENDBRANCH   1   2
BRANCH   1  29
ATOM     29  C   UNL     1      10.467  25.266  27.863  1.00  0.00     0.198 C 
BRANCH  29  30
ATOM     30  C   UNL     1      11.686  25.975  28.478  1.00  0.00     0.180 C 
ATOM     31  O   UNL     1      12.571  26.399  27.439  1.00  0.00    -0.332 OA
ATOM     32  C   UNL     1      11.266  27.227  29.264  1.00  0.00     0.177 C 
ATOM     33  C   UNL     1      13.876  26.738  27.931  1.00  0.00     0.339 C 
ATOM     34  C   UNL     1      12.477  28.155  29.520  1.00  0.00     0.180 C 
ATOM     35  C   UNL     1      13.829  27.448  29.312  1.00  0.00     0.214 C 
BRANCH  32  36
ATOM     36  O   UNL     1      10.657  26.844  30.499  1.00  0.00    -0.387 OA
ATOM     37  H   UNL     1      11.285  27.065  31.211  1.00  0.00     0.211 HD
ENDBRANCH  32  36
BRANCH  33  38
ATOM     38  O   UNL     1      14.504  27.649  27.005  1.00  0.00    -0.462 OA
BRANCH  38  39
ATOM     39  C   UNL     1      14.899  26.984  25.876  1.00  0.00     0.123 A 
ATOM     40  C   UNL     1      15.569  25.768  25.979  1.00  0.00     0.047 A 
ATOM     41  C   UNL     1      14.580  27.516  24.630  1.00  0.00     0.047 A 
ATOM     42  C   UNL     1      15.984  25.108  24.823  1.00  0.00     0.016 A 
ATOM     43  C   UNL     1      14.995  26.854  23.472  1.00  0.00     0.016 A 
ATOM     44  C   UNL     1      15.720  25.655  23.559  1.00  0.00     0.021 A 
BRANCH  44  45
ATOM     45  C   UNL     1      16.175  24.976  22.336  1.00  0.00     0.180 A 
ATOM     46  O   UNL     1      15.259  25.047  21.296  1.00  0.00    -0.452 OA
ATOM     47  C   UNL     1      17.372  24.369  22.254  1.00  0.00     0.208 A 
ATOM     48  C   UNL     1      15.567  24.437  20.105  1.00  0.00     0.146 A 
ATOM     49  C   UNL     1      17.737  23.702  20.984  1.00  0.00     0.238 A 
ATOM     50  C   UNL     1      14.613  24.519  19.090  1.00  0.00     0.094 A 
ATOM     51  C   UNL     1      16.766  23.761  19.888  1.00  0.00     0.111 A 
ATOM     52  O   UNL     1      18.816  23.126  20.875  1.00  0.00    -0.285 OA
ATOM     53  C   UNL     1      14.875  23.918  17.861  1.00  0.00     0.123 A 
ATOM     54  C   UNL     1      17.019  23.163  18.650  1.00  0.00     0.134 A 
ATOM     55  C   UNL     1      16.071  23.241  17.634  1.00  0.00     0.093 A 
BRANCH  47  56
ATOM     56  O   UNL     1      18.303  24.336  23.281  1.00  0.00    -0.502 OA
ATOM     57  H   UNL     1      17.777  24.516  24.093  1.00  0.00     0.293 HD
ENDBRANCH  47  56
BRANCH  53  58
ATOM     58  O   UNL     1      13.974  23.971  16.840  1.00  0.00    -0.508 OA
ATOM     59  H   UNL     1      14.337  24.509  16.117  1.00  0.00     0.293 HD
ENDBRANCH  53  58
BRANCH  54  60
ATOM     60  O   UNL     1      18.175  22.485  18.370  1.00  0.00    -0.507 OA
ATOM     61  H   UNL     1      18.396  22.618  17.423  1.00  0.00     0.293 HD
ENDBRANCH  54  60
ENDBRANCH  44  45
ENDBRANCH  38  39
ENDBRANCH  33  38
BRANCH  34  62
ATOM     62  O   UNL     1      12.386  29.316  28.683  1.00  0.00    -0.387 OA
ATOM     63  H   UNL     1      12.355  30.106  29.260  1.00  0.00     0.211 HD
ENDBRANCH  34  62
BRANCH  35  64
ATOM     64  O   UNL     1      14.049  26.484  30.355  1.00  0.00    -0.384 OA
ATOM     65  H   UNL     1      14.464  26.945  31.107  1.00  0.00     0.211 HD
ENDBRANCH  35  64
ENDBRANCH  29  30
ENDBRANCH   1  29
TORSDOF 21
ENDMDL
