MODEL 1
REMARK VINA RESULT:    -7.452      0.000      0.000
REMARK INTER + INTRA:         -13.299
REMARK INTER:                 -11.155
REMARK INTRA:                  -2.144
REMARK UNBOUND:                -2.144
REMARK SMILES O=c1c(O[C@@H]2O[C@H]([C@H](O)CO)[C@H](O)[C@H]2O)c(-c2ccc([O-])c(O)c2)oc2cc(O)cc(O)c12
REMARK SMILES IDX 5 1 6 2 7 3 12 4 14 5 4 6 3 7 1 8 2 9 33 10 16 11 31 12
REMARK SMILES IDX 26 13 25 14 30 15 27 16 28 17 17 18 18 19 24 20 19 21 22 22
REMARK SMILES IDX 20 23 21 24 23 25 32 27 29 29 15 31 8 33 9 34 10 36 11 37
REMARK SMILES IDX 13 39
REMARK H PARENT 23 26 32 28 29 30 15 32 9 35 11 38 13 40
ROOT
ATOM      1  C   UNL     1      11.179  23.986  28.086  1.00  0.00     0.339 C 
ATOM      2  O   UNL     1      11.066  24.984  29.118  1.00  0.00    -0.332 OA
ATOM      3  C   UNL     1      12.320  25.698  29.195  1.00  0.00     0.185 C 
ATOM      4  C   UNL     1      13.351  24.641  28.790  1.00  0.00     0.181 C 
ATOM      5  C   UNL     1      12.647  23.932  27.649  1.00  0.00     0.214 C 
ENDROOT
BRANCH   1   6
ATOM      6  O   UNL     1      10.412  24.358  26.939  1.00  0.00    -0.454 OA
BRANCH   6   7
ATOM      7  C   UNL     1       9.549  23.377  26.495  1.00  0.00     0.214 A 
ATOM      8  O   UNL     1      11.236  22.226  25.266  1.00  0.00    -0.285 OA
ATOM      9  C   UNL     1      10.057  22.294  25.615  1.00  0.00     0.239 A 
ATOM     10  C   UNL     1       9.082  21.290  25.165  1.00  0.00     0.111 A 
ATOM     11  C   UNL     1       8.228  23.413  26.751  1.00  0.00     0.180 A 
ATOM     12  C   UNL     1       9.458  20.207  24.361  1.00  0.00     0.134 A 
ATOM     13  C   UNL     1       7.751  21.433  25.554  1.00  0.00     0.146 A 
ATOM     14  O   UNL     1       7.307  22.473  26.331  1.00  0.00    -0.452 OA
ATOM     15  C   UNL     1       8.512  19.269  23.955  1.00  0.00     0.093 A 
ATOM     16  C   UNL     1       6.799  20.497  25.149  1.00  0.00     0.094 A 
ATOM     17  C   UNL     1       7.187  19.423  24.353  1.00  0.00     0.123 A 
BRANCH  11  18
ATOM     18  C   UNL     1       7.659  24.498  27.562  1.00  0.00     0.025 A 
ATOM     19  C   UNL     1       7.160  25.653  26.949  1.00  0.00     0.012 A 
ATOM     20  C   UNL     1       7.695  24.435  28.952  1.00  0.00     0.057 A 
ATOM     21  C   UNL     1       6.772  26.758  27.719  1.00  0.00    -0.004 A 
ATOM     22  C   UNL     1       7.309  25.556  29.682  1.00  0.00     0.108 A 
ATOM     23  C   UNL     1       6.870  26.774  29.119  1.00  0.00    -0.066 A 
ATOM     24  O   UNL     1       6.634  27.811  29.829  1.00  0.00    -0.870 OA
BRANCH  22  25
ATOM     25  O   UNL     1       7.403  25.519  31.055  1.00  0.00    -0.509 OA
ATOM     26  H   UNL     1       6.753  26.236  31.259  1.00  0.00     0.293 HD
ENDBRANCH  22  25
ENDBRANCH  11  18
BRANCH  12  27
ATOM     27  O   UNL     1      10.745  20.004  23.936  1.00  0.00    -0.507 OA
ATOM     28  H   UNL     1      11.328  19.975  24.726  1.00  0.00     0.293 HD
ENDBRANCH  12  27
BRANCH  17  29
ATOM     29  O   UNL     1       6.228  18.530  23.978  1.00  0.00    -0.508 OA
ATOM     30  H   UNL     1       6.642  17.830  23.447  1.00  0.00     0.293 HD
ENDBRANCH  17  29
ENDBRANCH   6   7
ENDBRANCH   1   6
BRANCH   5  31
ATOM     31  O   UNL     1      13.140  22.597  27.483  1.00  0.00    -0.384 OA
ATOM     32  H   UNL     1      12.479  22.131  26.927  1.00  0.00     0.211 HD
ENDBRANCH   5  31
BRANCH   3  33
ATOM     33  C   UNL     1      12.263  26.980  28.338  1.00  0.00     0.171 C 
BRANCH  33  34
ATOM     34  O   UNL     1      13.253  27.930  28.759  1.00  0.00    -0.388 OA
ATOM     35  H   UNL     1      14.097  27.524  28.467  1.00  0.00     0.211 HD
ENDBRANCH  33  34
BRANCH  33  36
ATOM     36  C   UNL     1      10.891  27.664  28.435  1.00  0.00     0.190 C 
BRANCH  36  37
ATOM     37  O   UNL     1      10.117  27.297  27.287  1.00  0.00    -0.394 OA
ATOM     38  H   UNL     1       9.332  26.813  27.651  1.00  0.00     0.210 HD
ENDBRANCH  36  37
ENDBRANCH  33  36
ENDBRANCH   3  33
BRANCH   4  39
ATOM     39  O   UNL     1      14.635  25.103  28.412  1.00  0.00    -0.387 OA
ATOM     40  H   UNL     1      15.147  25.190  29.236  1.00  0.00     0.211 HD
ENDBRANCH   4  39
TORSDOF 12
ENDMDL
MODEL 2
REMARK VINA RESULT:    -7.215      1.633      6.402
REMARK INTER + INTRA:         -12.944
REMARK INTER:                 -11.058
REMARK INTRA:                  -1.886
REMARK UNBOUND:                -2.144
REMARK SMILES O=c1c(O[C@@H]2O[C@H]([C@H](O)CO)[C@H](O)[C@H]2O)c(-c2ccc([O-])c(O)c2)oc2cc(O)cc(O)c12
REMARK SMILES IDX 5 1 6 2 7 3 12 4 14 5 4 6 3 7 1 8 2 9 33 10 16 11 31 12
REMARK SMILES IDX 26 13 25 14 30 15 27 16 28 17 17 18 18 19 24 20 19 21 22 22
REMARK SMILES IDX 20 23 21 24 23 25 32 27 29 29 15 31 8 33 9 34 10 36 11 37
REMARK SMILES IDX 13 39
REMARK H PARENT 23 26 32 28 29 30 15 32 9 35 11 38 13 40
ROOT
ATOM      1  C   UNL     1       9.787  22.002  24.939  1.00  0.00     0.339 C 
ATOM      2  O   UNL     1       8.496  22.475  24.511  1.00  0.00    -0.332 OA
ATOM      3  C   UNL     1       7.758  21.352  23.979  1.00  0.00     0.185 C 
ATOM      4  C   UNL     1       8.853  20.456  23.396  1.00  0.00     0.181 C 
ATOM      5  C   UNL     1       9.940  20.558  24.449  1.00  0.00     0.214 C 
ENDROOT
BRANCH   1   6
ATOM      6  O   UNL     1       9.866  21.973  26.365  1.00  0.00    -0.454 OA
BRANCH   6   7
ATOM      7  C   UNL     1      10.727  22.908  26.902  1.00  0.00     0.214 A 
ATOM      8  O   UNL     1      12.680  21.811  26.087  1.00  0.00    -0.285 OA
ATOM      9  C   UNL     1      12.193  22.750  26.717  1.00  0.00     0.239 A 
ATOM     10  C   UNL     1      13.055  23.772  27.328  1.00  0.00     0.111 A 
ATOM     11  C   UNL     1      10.297  23.920  27.678  1.00  0.00     0.180 A 
ATOM     12  C   UNL     1      14.448  23.740  27.186  1.00  0.00     0.134 A 
ATOM     13  C   UNL     1      12.458  24.793  28.066  1.00  0.00     0.146 A 
ATOM     14  O   UNL     1      11.101  24.883  28.255  1.00  0.00    -0.452 OA
ATOM     15  C   UNL     1      15.238  24.726  27.773  1.00  0.00     0.093 A 
ATOM     16  C   UNL     1      13.244  25.782  28.656  1.00  0.00     0.094 A 
ATOM     17  C   UNL     1      14.628  25.741  28.504  1.00  0.00     0.123 A 
BRANCH  11  18
ATOM     18  C   UNL     1       8.863  24.088  27.950  1.00  0.00     0.025 A 
ATOM     19  C   UNL     1       8.059  24.828  27.074  1.00  0.00     0.012 A 
ATOM     20  C   UNL     1       8.304  23.597  29.126  1.00  0.00     0.057 A 
ATOM     21  C   UNL     1       6.732  25.134  27.410  1.00  0.00    -0.004 A 
ATOM     22  C   UNL     1       6.986  23.929  29.429  1.00  0.00     0.108 A 
ATOM     23  C   UNL     1       6.151  24.734  28.623  1.00  0.00    -0.066 A 
ATOM     24  O   UNL     1       4.985  25.103  28.999  1.00  0.00    -0.870 OA
BRANCH  22  25
ATOM     25  O   UNL     1       6.449  23.498  30.621  1.00  0.00    -0.509 OA
ATOM     26  H   UNL     1       7.291  23.227  31.064  1.00  0.00     0.293 HD
ENDBRANCH  22  25
ENDBRANCH  11  18
BRANCH  12  27
ATOM     27  O   UNL     1      15.105  22.766  26.482  1.00  0.00    -0.507 OA
ATOM     28  H   UNL     1      15.658  22.253  27.112  1.00  0.00     0.293 HD
ENDBRANCH  12  27
BRANCH  17  29
ATOM     29  O   UNL     1      15.362  26.725  29.097  1.00  0.00    -0.508 OA
ATOM     30  H   UNL     1      15.141  26.754  30.042  1.00  0.00     0.293 HD
ENDBRANCH  17  29
ENDBRANCH   6   7
ENDBRANCH   1   6
BRANCH   5  31
ATOM     31  O   UNL     1      11.231  20.282  23.893  1.00  0.00    -0.384 OA
ATOM     32  H   UNL     1      11.706  21.140  23.871  1.00  0.00     0.211 HD
ENDBRANCH   5  31
BRANCH   3  33
ATOM     33  C   UNL     1       6.859  20.734  25.070  1.00  0.00     0.171 C 
BRANCH  33  34
ATOM     34  O   UNL     1       5.935  19.791  24.508  1.00  0.00    -0.388 OA
ATOM     35  H   UNL     1       5.300  20.357  24.018  1.00  0.00     0.211 HD
ENDBRANCH  33  34
BRANCH  33  36
ATOM     36  C   UNL     1       6.038  21.808  25.802  1.00  0.00     0.190 C 
BRANCH  36  37
ATOM     37  O   UNL     1       5.902  21.420  27.174  1.00  0.00    -0.394 OA
ATOM     38  H   UNL     1       4.984  21.693  27.429  1.00  0.00     0.210 HD
ENDBRANCH  36  37
ENDBRANCH  33  36
ENDBRANCH   3  33
BRANCH   4  39
ATOM     39  O   UNL     1       8.508  19.110  23.122  1.00  0.00    -0.387 OA
ATOM     40  H   UNL     1       9.174  18.561  23.573  1.00  0.00     0.211 HD
ENDBRANCH   4  39
TORSDOF 12
ENDMDL
MODEL 3
REMARK VINA RESULT:    -7.172      1.551      4.620
REMARK INTER + INTRA:         -12.880
REMARK INTER:                 -11.208
REMARK INTRA:                  -1.672
REMARK UNBOUND:                -2.144
REMARK SMILES O=c1c(O[C@@H]2O[C@H]([C@H](O)CO)[C@H](O)[C@H]2O)c(-c2ccc([O-])c(O)c2)oc2cc(O)cc(O)c12
REMARK SMILES IDX 5 1 6 2 7 3 12 4 14 5 4 6 3 7 1 8 2 9 33 10 16 11 31 12
REMARK SMILES IDX 26 13 25 14 30 15 27 16 28 17 17 18 18 19 24 20 19 21 22 22
REMARK SMILES IDX 20 23 21 24 23 25 32 27 29 29 15 31 8 33 9 34 10 36 11 37
REMARK SMILES IDX 13 39
REMARK H PARENT 23 26 32 28 29 30 15 32 9 35 11 38 13 40
ROOT
ATOM      1  C   UNL     1       6.411  23.960  28.142  1.00  0.00     0.339 C 
ATOM      2  O   UNL     1       5.417  24.970  28.396  1.00  0.00    -0.332 OA
ATOM      3  C   UNL     1       5.694  25.561  29.686  1.00  0.00     0.185 C 
ATOM      4  C   UNL     1       6.322  24.409  30.473  1.00  0.00     0.181 C 
ATOM      5  C   UNL     1       7.216  23.764  29.431  1.00  0.00     0.214 C 
ENDROOT
BRANCH   1   6
ATOM      6  O   UNL     1       7.328  24.397  27.137  1.00  0.00    -0.454 OA
BRANCH   6   7
ATOM      7  C   UNL     1       7.917  23.372  26.426  1.00  0.00     0.214 A 
ATOM      8  O   UNL     1       5.841  22.319  25.917  1.00  0.00    -0.285 OA
ATOM      9  C   UNL     1       7.069  22.315  25.819  1.00  0.00     0.239 A 
ATOM     10  C   UNL     1       7.761  21.242  25.089  1.00  0.00     0.111 A 
ATOM     11  C   UNL     1       9.253  23.234  26.337  1.00  0.00     0.180 A 
ATOM     12  C   UNL     1       7.057  20.215  24.449  1.00  0.00     0.134 A 
ATOM     13  C   UNL     1       9.154  21.261  25.042  1.00  0.00     0.146 A 
ATOM     14  O   UNL     1       9.910  22.229  25.653  1.00  0.00    -0.452 OA
ATOM     15  C   UNL     1       7.740  19.216  23.761  1.00  0.00     0.093 A 
ATOM     16  C   UNL     1       9.844  20.262  24.355  1.00  0.00     0.094 A 
ATOM     17  C   UNL     1       9.132  19.248  23.720  1.00  0.00     0.123 A 
BRANCH  11  18
ATOM     18  C   UNL     1      10.144  24.214  26.973  1.00  0.00     0.025 A 
ATOM     19  C   UNL     1      10.521  25.376  26.288  1.00  0.00     0.012 A 
ATOM     20  C   UNL     1      10.701  23.958  28.222  1.00  0.00     0.057 A 
ATOM     21  C   UNL     1      11.499  26.230  26.819  1.00  0.00    -0.004 A 
ATOM     22  C   UNL     1      11.674  24.825  28.711  1.00  0.00     0.108 A 
ATOM     23  C   UNL     1      12.150  25.969  28.034  1.00  0.00    -0.066 A 
ATOM     24  O   UNL     1      13.124  26.670  28.474  1.00  0.00    -0.870 OA
BRANCH  22  25
ATOM     25  O   UNL     1      12.272  24.541  29.919  1.00  0.00    -0.509 OA
ATOM     26  H   UNL     1      13.207  24.476  29.600  1.00  0.00     0.293 HD
ENDBRANCH  22  25
ENDBRANCH  11  18
BRANCH  12  27
ATOM     27  O   UNL     1       5.690  20.128  24.457  1.00  0.00    -0.507 OA
ATOM     28  H   UNL     1       5.343  20.686  23.727  1.00  0.00     0.293 HD
ENDBRANCH  12  27
BRANCH  17  29
ATOM     29  O   UNL     1       9.842  18.290  23.059  1.00  0.00    -0.508 OA
ATOM     30  H   UNL     1      10.747  18.274  23.411  1.00  0.00     0.293 HD
ENDBRANCH  17  29
ENDBRANCH   6   7
ENDBRANCH   1   6
BRANCH   5  31
ATOM     31  O   UNL     1       7.466  22.387  29.740  1.00  0.00    -0.384 OA
ATOM     32  H   UNL     1       7.844  21.991  28.925  1.00  0.00     0.211 HD
ENDBRANCH   5  31
BRANCH   3  33
ATOM     33  C   UNL     1       6.543  26.838  29.521  1.00  0.00     0.171 C 
BRANCH  33  34
ATOM     34  O   UNL     1       6.455  27.674  30.684  1.00  0.00    -0.388 OA
ATOM     35  H   UNL     1       7.383  27.721  31.002  1.00  0.00     0.211 HD
ENDBRANCH  33  34
BRANCH  33  36
ATOM     36  C   UNL     1       6.085  27.671  28.314  1.00  0.00     0.190 C 
BRANCH  36  37
ATOM     37  O   UNL     1       6.917  27.346  27.194  1.00  0.00    -0.394 OA
ATOM     38  H   UNL     1       7.302  26.458  27.409  1.00  0.00     0.210 HD
ENDBRANCH  36  37
ENDBRANCH  33  36
ENDBRANCH   3  33
BRANCH   4  39
ATOM     39  O   UNL     1       7.038  24.744  31.648  1.00  0.00    -0.387 OA
ATOM     40  H   UNL     1       6.488  24.447  32.395  1.00  0.00     0.211 HD
ENDBRANCH   4  39
TORSDOF 12
ENDMDL
MODEL 4
REMARK VINA RESULT:    -7.132      1.040      2.264
REMARK INTER + INTRA:         -12.820
REMARK INTER:                 -10.814
REMARK INTRA:                  -2.006
REMARK UNBOUND:                -2.144
REMARK SMILES O=c1c(O[C@@H]2O[C@H]([C@H](O)CO)[C@H](O)[C@H]2O)c(-c2ccc([O-])c(O)c2)oc2cc(O)cc(O)c12
REMARK SMILES IDX 5 1 6 2 7 3 12 4 14 5 4 6 3 7 1 8 2 9 33 10 16 11 31 12
REMARK SMILES IDX 26 13 25 14 30 15 27 16 28 17 17 18 18 19 24 20 19 21 22 22
REMARK SMILES IDX 20 23 21 24 23 25 32 27 29 29 15 31 8 33 9 34 10 36 11 37
REMARK SMILES IDX 13 39
REMARK H PARENT 23 26 32 28 29 30 15 32 9 35 11 38 13 40
ROOT
ATOM      1  C   UNL     1      10.222  25.220  26.755  1.00  0.00     0.339 C 
ATOM      2  O   UNL     1      11.491  25.105  26.085  1.00  0.00    -0.332 OA
ATOM      3  C   UNL     1      12.420  26.012  26.720  1.00  0.00     0.185 C 
ATOM      4  C   UNL     1      11.523  27.158  27.194  1.00  0.00     0.181 C 
ATOM      5  C   UNL     1      10.306  26.416  27.711  1.00  0.00     0.214 C 
ENDROOT
BRANCH   1   6
ATOM      6  O   UNL     1       9.965  24.062  27.552  1.00  0.00    -0.454 OA
BRANCH   6   7
ATOM      7  C   UNL     1       9.165  23.120  26.937  1.00  0.00     0.214 A 
ATOM      8  O   UNL     1      10.945  22.237  25.621  1.00  0.00    -0.285 OA
ATOM      9  C   UNL     1       9.754  22.201  25.930  1.00  0.00     0.239 A 
ATOM     10  C   UNL     1       8.844  21.232  25.300  1.00  0.00     0.111 A 
ATOM     11  C   UNL     1       7.836  23.060  27.143  1.00  0.00     0.180 A 
ATOM     12  C   UNL     1       9.299  20.296  24.364  1.00  0.00     0.134 A 
ATOM     13  C   UNL     1       7.496  21.258  25.654  1.00  0.00     0.146 A 
ATOM     14  O   UNL     1       6.976  22.153  26.556  1.00  0.00    -0.452 OA
ATOM     15  C   UNL     1       8.414  19.387  23.789  1.00  0.00     0.093 A 
ATOM     16  C   UNL     1       6.605  20.352  25.080  1.00  0.00     0.094 A 
ATOM     17  C   UNL     1       7.071  19.423  24.153  1.00  0.00     0.123 A 
BRANCH  11  18
ATOM     18  C   UNL     1       7.189  23.988  28.080  1.00  0.00     0.025 A 
ATOM     19  C   UNL     1       6.543  25.137  27.606  1.00  0.00     0.012 A 
ATOM     20  C   UNL     1       7.291  23.792  29.454  1.00  0.00     0.057 A 
ATOM     21  C   UNL     1       6.071  26.109  28.498  1.00  0.00    -0.004 A 
ATOM     22  C   UNL     1       6.818  24.784  30.308  1.00  0.00     0.108 A 
ATOM     23  C   UNL     1       6.226  25.996  29.888  1.00  0.00    -0.066 A 
ATOM     24  O   UNL     1       5.910  26.924  30.709  1.00  0.00    -0.870 OA
BRANCH  22  25
ATOM     25  O   UNL     1       6.973  24.621  31.666  1.00  0.00    -0.509 OA
ATOM     26  H   UNL     1       7.924  24.349  31.667  1.00  0.00     0.293 HD
ENDBRANCH  22  25
ENDBRANCH  11  18
BRANCH  12  27
ATOM     27  O   UNL     1      10.607  20.214  23.964  1.00  0.00    -0.507 OA
ATOM     28  H   UNL     1      10.625  20.182  22.982  1.00  0.00     0.293 HD
ENDBRANCH  12  27
BRANCH  17  29
ATOM     29  O   UNL     1       6.169  18.554  23.615  1.00  0.00    -0.508 OA
ATOM     30  H   UNL     1       6.545  17.659  23.638  1.00  0.00     0.293 HD
ENDBRANCH  17  29
ENDBRANCH   6   7
ENDBRANCH   1   6
BRANCH   5  31
ATOM     31  O   UNL     1       9.140  27.246  27.684  1.00  0.00    -0.384 OA
ATOM     32  H   UNL     1       9.422  28.123  28.023  1.00  0.00     0.211 HD
ENDBRANCH   5  31
BRANCH   3  33
ATOM     33  C   UNL     1      13.239  25.275  27.799  1.00  0.00     0.171 C 
BRANCH  33  34
ATOM     34  O   UNL     1      14.394  26.036  28.184  1.00  0.00    -0.388 OA
ATOM     35  H   UNL     1      14.860  25.440  28.811  1.00  0.00     0.211 HD
ENDBRANCH  33  34
BRANCH  33  36
ATOM     36  C   UNL     1      13.729  23.907  27.302  1.00  0.00     0.190 C 
BRANCH  36  37
ATOM     37  O   UNL     1      12.772  22.913  27.688  1.00  0.00    -0.394 OA
ATOM     38  H   UNL     1      13.313  22.123  27.947  1.00  0.00     0.210 HD
ENDBRANCH  36  37
ENDBRANCH  33  36
ENDBRANCH   3  33
BRANCH   4  39
ATOM     39  O   UNL     1      12.058  28.037  28.167  1.00  0.00    -0.387 OA
ATOM     40  H   UNL     1      12.659  28.638  27.691  1.00  0.00     0.211 HD
ENDBRANCH   4  39
TORSDOF 12
ENDMDL
MODEL 5
REMARK VINA RESULT:    -7.107      2.139      6.347
REMARK INTER + INTRA:         -12.783
REMARK INTER:                 -10.825
REMARK INTRA:                  -1.958
REMARK UNBOUND:                -2.144
REMARK SMILES O=c1c(O[C@@H]2O[C@H]([C@H](O)CO)[C@H](O)[C@H]2O)c(-c2ccc([O-])c(O)c2)oc2cc(O)cc(O)c12
REMARK SMILES IDX 5 1 6 2 7 3 12 4 14 5 4 6 3 7 1 8 2 9 33 10 16 11 31 12
REMARK SMILES IDX 26 13 25 14 30 15 27 16 28 17 17 18 18 19 24 20 19 21 22 22
REMARK SMILES IDX 20 23 21 24 23 25 32 27 29 29 15 31 8 33 9 34 10 36 11 37
REMARK SMILES IDX 13 39
REMARK H PARENT 23 26 32 28 29 30 15 32 9 35 11 38 13 40
ROOT
ATOM      1  C   UNL     1       9.867  23.599  27.214  1.00  0.00     0.339 C 
ATOM      2  O   UNL     1      10.318  23.463  25.853  1.00  0.00    -0.332 OA
ATOM      3  C   UNL     1      11.692  23.015  25.876  1.00  0.00     0.185 C 
ATOM      4  C   UNL     1      12.241  23.633  27.164  1.00  0.00     0.181 C 
ATOM      5  C   UNL     1      11.087  23.437  28.128  1.00  0.00     0.214 C 
ENDROOT
BRANCH   1   6
ATOM      6  O   UNL     1       8.950  22.555  27.548  1.00  0.00    -0.454 OA
BRANCH   6   7
ATOM      7  C   UNL     1       7.645  22.977  27.697  1.00  0.00     0.214 A 
ATOM      8  O   UNL     1       8.140  24.365  29.570  1.00  0.00    -0.285 OA
ATOM      9  C   UNL     1       7.298  23.925  28.787  1.00  0.00     0.239 A 
ATOM     10  C   UNL     1       5.887  24.321  28.901  1.00  0.00     0.111 A 
ATOM     11  C   UNL     1       6.641  22.486  26.947  1.00  0.00     0.180 A 
ATOM     12  C   UNL     1       5.455  25.235  29.869  1.00  0.00     0.134 A 
ATOM     13  C   UNL     1       4.965  23.764  28.016  1.00  0.00     0.146 A 
ATOM     14  O   UNL     1       5.313  22.855  27.048  1.00  0.00    -0.452 OA
ATOM     15  C   UNL     1       4.112  25.595  29.949  1.00  0.00     0.093 A 
ATOM     16  C   UNL     1       3.619  24.119  28.092  1.00  0.00     0.094 A 
ATOM     17  C   UNL     1       3.203  25.033  29.057  1.00  0.00     0.123 A 
BRANCH  11  18
ATOM     18  C   UNL     1       6.915  21.497  25.896  1.00  0.00     0.025 A 
ATOM     19  C   UNL     1       6.792  20.128  26.164  1.00  0.00     0.012 A 
ATOM     20  C   UNL     1       7.394  21.900  24.653  1.00  0.00     0.057 A 
ATOM     21  C   UNL     1       7.212  19.177  25.223  1.00  0.00    -0.004 A 
ATOM     22  C   UNL     1       7.809  20.926  23.749  1.00  0.00     0.108 A 
ATOM     23  C   UNL     1       7.780  19.535  23.991  1.00  0.00    -0.066 A 
ATOM     24  O   UNL     1       8.276  18.687  23.173  1.00  0.00    -0.870 OA
BRANCH  22  25
ATOM     25  O   UNL     1       8.340  21.323  22.542  1.00  0.00    -0.509 OA
ATOM     26  H   UNL     1       9.257  21.528  22.854  1.00  0.00     0.293 HD
ENDBRANCH  22  25
ENDBRANCH  11  18
BRANCH  12  27
ATOM     27  O   UNL     1       6.301  25.819  30.776  1.00  0.00    -0.507 OA
ATOM     28  H   UNL     1       7.156  25.997  30.326  1.00  0.00     0.293 HD
ENDBRANCH  12  27
BRANCH  17  29
ATOM     29  O   UNL     1       1.879  25.355  29.099  1.00  0.00    -0.508 OA
ATOM     30  H   UNL     1       1.510  25.279  28.204  1.00  0.00     0.293 HD
ENDBRANCH  17  29
ENDBRANCH   6   7
ENDBRANCH   1   6
BRANCH   5  31
ATOM     31  O   UNL     1      11.129  24.395  29.192  1.00  0.00    -0.384 OA
ATOM     32  H   UNL     1      11.340  25.257  28.773  1.00  0.00     0.211 HD
ENDBRANCH   5  31
BRANCH   3  33
ATOM     33  C   UNL     1      11.759  21.478  25.756  1.00  0.00     0.171 C 
BRANCH  33  34
ATOM     34  O   UNL     1      13.054  20.984  26.128  1.00  0.00    -0.388 OA
ATOM     35  H   UNL     1      13.641  21.758  25.987  1.00  0.00     0.211 HD
ENDBRANCH  33  34
BRANCH  33  36
ATOM     36  C   UNL     1      11.478  21.010  24.320  1.00  0.00     0.190 C 
BRANCH  36  37
ATOM     37  O   UNL     1      11.066  22.142  23.544  1.00  0.00    -0.394 OA
ATOM     38  H   UNL     1      11.898  22.489  23.133  1.00  0.00     0.210 HD
ENDBRANCH  36  37
ENDBRANCH  33  36
ENDBRANCH   3  33
BRANCH   4  39
ATOM     39  O   UNL     1      13.450  23.098  27.672  1.00  0.00    -0.387 OA
ATOM     40  H   UNL     1      14.045  22.996  26.908  1.00  0.00     0.211 HD
ENDBRANCH   4  39
TORSDOF 12
ENDMDL
MODEL 6
REMARK VINA RESULT:    -6.718      1.897      4.884
REMARK INTER + INTRA:         -12.201
REMARK INTER:                  -9.992
REMARK INTRA:                  -2.209
REMARK UNBOUND:                -2.144
REMARK SMILES O=c1c(O[C@@H]2O[C@H]([C@H](O)CO)[C@H](O)[C@H]2O)c(-c2ccc([O-])c(O)c2)oc2cc(O)cc(O)c12
REMARK SMILES IDX 5 1 6 2 7 3 12 4 14 5 4 6 3 7 1 8 2 9 33 10 16 11 31 12
REMARK SMILES IDX 26 13 25 14 30 15 27 16 28 17 17 18 18 19 24 20 19 21 22 22
REMARK SMILES IDX 20 23 21 24 23 25 32 27 29 29 15 31 8 33 9 34 10 36 11 37
REMARK SMILES IDX 13 39
REMARK H PARENT 23 26 32 28 29 30 15 32 9 35 11 38 13 40
ROOT
ATOM      1  C   UNL     1       9.792  25.351  27.960  1.00  0.00     0.339 C 
ATOM      2  O   UNL     1      10.847  26.331  27.962  1.00  0.00    -0.332 OA
ATOM      3  C   UNL     1      10.796  27.047  29.216  1.00  0.00     0.185 C 
ATOM      4  C   UNL     1       9.308  27.029  29.570  1.00  0.00     0.181 C 
ATOM      5  C   UNL     1       8.906  25.619  29.182  1.00  0.00     0.214 C 
ENDROOT
BRANCH   1   6
ATOM      6  O   UNL     1      10.326  24.034  28.109  1.00  0.00    -0.454 OA
BRANCH   6   7
ATOM      7  C   UNL     1       9.916  23.146  27.135  1.00  0.00     0.214 A 
ATOM      8  O   UNL     1       7.895  22.589  28.268  1.00  0.00    -0.285 OA
ATOM      9  C   UNL     1       8.629  22.422  27.294  1.00  0.00     0.239 A 
ATOM     10  C   UNL     1       8.260  21.478  26.229  1.00  0.00     0.111 A 
ATOM     11  C   UNL     1      10.689  22.832  26.079  1.00  0.00     0.180 A 
ATOM     12  C   UNL     1       7.054  20.769  26.260  1.00  0.00     0.134 A 
ATOM     13  C   UNL     1       9.144  21.294  25.167  1.00  0.00     0.146 A 
ATOM     14  O   UNL     1      10.348  21.947  25.074  1.00  0.00    -0.452 OA
ATOM     15  C   UNL     1       6.729  19.886  25.233  1.00  0.00     0.093 A 
ATOM     16  C   UNL     1       8.825  20.410  24.136  1.00  0.00     0.094 A 
ATOM     17  C   UNL     1       7.621  19.714  24.177  1.00  0.00     0.123 A 
BRANCH  11  18
ATOM     18  C   UNL     1      12.001  23.469  25.904  1.00  0.00     0.025 A 
ATOM     19  C   UNL     1      12.109  24.694  25.235  1.00  0.00     0.012 A 
ATOM     20  C   UNL     1      13.162  22.820  26.313  1.00  0.00     0.057 A 
ATOM     21  C   UNL     1      13.368  25.225  24.917  1.00  0.00    -0.004 A 
ATOM     22  C   UNL     1      14.393  23.374  25.971  1.00  0.00     0.108 A 
ATOM     23  C   UNL     1      14.565  24.565  25.233  1.00  0.00    -0.066 A 
ATOM     24  O   UNL     1      15.715  24.973  24.849  1.00  0.00    -0.870 OA
BRANCH  22  25
ATOM     25  O   UNL     1      15.544  22.703  26.321  1.00  0.00    -0.509 OA
ATOM     26  H   UNL     1      15.268  22.413  27.226  1.00  0.00     0.293 HD
ENDBRANCH  22  25
ENDBRANCH  11  18
BRANCH  12  27
ATOM     27  O   UNL     1       6.139  20.894  27.272  1.00  0.00    -0.507 OA
ATOM     28  H   UNL     1       5.415  20.249  27.112  1.00  0.00     0.293 HD
ENDBRANCH  12  27
BRANCH  17  29
ATOM     29  O   UNL     1       7.345  18.858  23.152  1.00  0.00    -0.508 OA
ATOM     30  H   UNL     1       6.411  18.958  22.903  1.00  0.00     0.293 HD
ENDBRANCH  17  29
ENDBRANCH   6   7
ENDBRANCH   1   6
BRANCH   5  31
ATOM     31  O   UNL     1       7.505  25.537  28.895  1.00  0.00    -0.384 OA
ATOM     32  H   UNL     1       7.427  25.021  28.064  1.00  0.00     0.211 HD
ENDBRANCH   5  31
BRANCH   3  33
ATOM     33  C   UNL     1      11.764  26.413  30.237  1.00  0.00     0.171 C 
BRANCH  33  34
ATOM     34  O   UNL     1      11.924  27.252  31.391  1.00  0.00    -0.388 OA
ATOM     35  H   UNL     1      12.880  27.172  31.600  1.00  0.00     0.211 HD
ENDBRANCH  33  34
BRANCH  33  36
ATOM     36  C   UNL     1      13.157  26.187  29.631  1.00  0.00     0.190 C 
BRANCH  36  37
ATOM     37  O   UNL     1      13.160  24.923  28.956  1.00  0.00    -0.394 OA
ATOM     38  H   UNL     1      12.247  24.830  28.581  1.00  0.00     0.210 HD
ENDBRANCH  36  37
ENDBRANCH  33  36
ENDBRANCH   3  33
BRANCH   4  39
ATOM     39  O   UNL     1       8.959  27.327  30.910  1.00  0.00    -0.387 OA
ATOM     40  H   UNL     1       9.018  28.295  30.998  1.00  0.00     0.211 HD
ENDBRANCH   4  39
TORSDOF 12
ENDMDL
MODEL 7
REMARK VINA RESULT:    -6.632      1.977      6.852
REMARK INTER + INTRA:         -12.072
REMARK INTER:                 -10.032
REMARK INTRA:                  -2.040
REMARK UNBOUND:                -2.144
REMARK SMILES O=c1c(O[C@@H]2O[C@H]([C@H](O)CO)[C@H](O)[C@H]2O)c(-c2ccc([O-])c(O)c2)oc2cc(O)cc(O)c12
REMARK SMILES IDX 5 1 6 2 7 3 12 4 14 5 4 6 3 7 1 8 2 9 33 10 16 11 31 12
REMARK SMILES IDX 26 13 25 14 30 15 27 16 28 17 17 18 18 19 24 20 19 21 22 22
REMARK SMILES IDX 20 23 21 24 23 25 32 27 29 29 15 31 8 33 9 34 10 36 11 37
REMARK SMILES IDX 13 39
REMARK H PARENT 23 26 32 28 29 30 15 32 9 35 11 38 13 40
ROOT
ATOM      1  C   UNL     1       7.650  25.761  27.860  1.00  0.00     0.339 C 
ATOM      2  O   UNL     1       6.594  24.861  28.244  1.00  0.00    -0.332 OA
ATOM      3  C   UNL     1       5.330  25.488  27.930  1.00  0.00     0.185 C 
ATOM      4  C   UNL     1       5.626  26.980  28.102  1.00  0.00     0.181 C 
ATOM      5  C   UNL     1       7.007  27.103  27.490  1.00  0.00     0.214 C 
ENDROOT
BRANCH   1   6
ATOM      6  O   UNL     1       8.322  25.281  26.694  1.00  0.00    -0.454 OA
BRANCH   6   7
ATOM      7  C   UNL     1       9.598  24.810  26.932  1.00  0.00     0.214 A 
ATOM      8  O   UNL     1      10.444  26.950  27.553  1.00  0.00    -0.285 OA
ATOM      9  C   UNL     1      10.658  25.750  27.376  1.00  0.00     0.239 A 
ATOM     10  C   UNL     1      11.998  25.187  27.596  1.00  0.00     0.111 A 
ATOM     11  C   UNL     1       9.951  23.535  26.684  1.00  0.00     0.180 A 
ATOM     12  C   UNL     1      13.063  25.976  28.048  1.00  0.00     0.134 A 
ATOM     13  C   UNL     1      12.200  23.831  27.343  1.00  0.00     0.146 A 
ATOM     14  O   UNL     1      11.207  22.999  26.889  1.00  0.00    -0.452 OA
ATOM     15  C   UNL     1      14.320  25.412  28.252  1.00  0.00     0.093 A 
ATOM     16  C   UNL     1      13.457  23.261  27.544  1.00  0.00     0.094 A 
ATOM     17  C   UNL     1      14.506  24.056  27.998  1.00  0.00     0.123 A 
BRANCH  11  18
ATOM     18  C   UNL     1       8.958  22.575  26.182  1.00  0.00     0.025 A 
ATOM     19  C   UNL     1       8.810  22.367  24.805  1.00  0.00     0.012 A 
ATOM     20  C   UNL     1       8.088  21.934  27.058  1.00  0.00     0.057 A 
ATOM     21  C   UNL     1       7.757  21.583  24.312  1.00  0.00    -0.004 A 
ATOM     22  C   UNL     1       7.050  21.171  26.530  1.00  0.00     0.108 A 
ATOM     23  C   UNL     1       6.804  20.985  25.152  1.00  0.00    -0.066 A 
ATOM     24  O   UNL     1       5.773  20.368  24.717  1.00  0.00    -0.870 OA
BRANCH  22  25
ATOM     25  O   UNL     1       6.151  20.585  27.393  1.00  0.00    -0.509 OA
ATOM     26  H   UNL     1       6.765  20.432  28.153  1.00  0.00     0.293 HD
ENDBRANCH  22  25
ENDBRANCH  11  18
BRANCH  12  27
ATOM     27  O   UNL     1      12.942  27.315  28.312  1.00  0.00    -0.507 OA
ATOM     28  H   UNL     1      13.832  27.663  28.539  1.00  0.00     0.293 HD
ENDBRANCH  12  27
BRANCH  17  29
ATOM     29  O   UNL     1      15.720  23.462  28.182  1.00  0.00    -0.508 OA
ATOM     30  H   UNL     1      16.407  24.149  28.189  1.00  0.00     0.293 HD
ENDBRANCH  17  29
ENDBRANCH   6   7
ENDBRANCH   1   6
BRANCH   5  31
ATOM     31  O   UNL     1       7.712  28.233  28.017  1.00  0.00    -0.384 OA
ATOM     32  H   UNL     1       8.092  27.941  28.873  1.00  0.00     0.211 HD
ENDBRANCH   5  31
BRANCH   3  33
ATOM     33  C   UNL     1       4.834  25.032  26.542  1.00  0.00     0.171 C 
BRANCH  33  34
ATOM     34  O   UNL     1       3.688  25.789  26.125  1.00  0.00    -0.388 OA
ATOM     35  H   UNL     1       4.030  26.326  25.378  1.00  0.00     0.211 HD
ENDBRANCH  33  34
BRANCH  33  36
ATOM     36  C   UNL     1       4.434  23.548  26.544  1.00  0.00     0.190 C 
BRANCH  36  37
ATOM     37  O   UNL     1       4.430  23.080  27.898  1.00  0.00    -0.394 OA
ATOM     38  H   UNL     1       4.683  22.123  27.839  1.00  0.00     0.210 HD
ENDBRANCH  36  37
ENDBRANCH  33  36
ENDBRANCH   3  33
BRANCH   4  39
ATOM     39  O   UNL     1       4.709  27.891  27.524  1.00  0.00    -0.387 OA
ATOM     40  H   UNL     1       5.084  28.779  27.661  1.00  0.00     0.211 HD
ENDBRANCH   4  39
TORSDOF 12
ENDMDL
MODEL 8
REMARK VINA RESULT:    -6.459      2.088      7.606
REMARK INTER + INTRA:         -11.812
REMARK INTER:                  -9.707
REMARK INTRA:                  -2.105
REMARK UNBOUND:                -2.144
REMARK SMILES O=c1c(O[C@@H]2O[C@H]([C@H](O)CO)[C@H](O)[C@H]2O)c(-c2ccc([O-])c(O)c2)oc2cc(O)cc(O)c12
REMARK SMILES IDX 5 1 6 2 7 3 12 4 14 5 4 6 3 7 1 8 2 9 33 10 16 11 31 12
REMARK SMILES IDX 26 13 25 14 30 15 27 16 28 17 17 18 18 19 24 20 19 21 22 22
REMARK SMILES IDX 20 23 21 24 23 25 32 27 29 29 15 31 8 33 9 34 10 36 11 37
REMARK SMILES IDX 13 39
REMARK H PARENT 23 26 32 28 29 30 15 32 9 35 11 38 13 40
ROOT
ATOM      1  C   UNL     1       7.580  22.398  26.515  1.00  0.00     0.339 C 
ATOM      2  O   UNL     1       8.611  21.457  26.163  1.00  0.00    -0.332 OA
ATOM      3  C   UNL     1       8.112  20.616  25.099  1.00  0.00     0.185 C 
ATOM      4  C   UNL     1       6.609  20.552  25.378  1.00  0.00     0.181 C 
ATOM      5  C   UNL     1       6.299  21.980  25.783  1.00  0.00     0.214 C 
ENDROOT
BRANCH   1   6
ATOM      6  O   UNL     1       7.916  23.709  26.058  1.00  0.00    -0.454 OA
BRANCH   6   7
ATOM      7  C   UNL     1       8.037  24.644  27.066  1.00  0.00     0.214 A 
ATOM      8  O   UNL     1       5.689  25.026  27.210  1.00  0.00    -0.285 OA
ATOM      9  C   UNL     1       6.821  25.295  27.615  1.00  0.00     0.239 A 
ATOM     10  C   UNL     1       7.021  26.293  28.676  1.00  0.00     0.111 A 
ATOM     11  C   UNL     1       9.234  25.067  27.514  1.00  0.00     0.180 A 
ATOM     12  C   UNL     1       5.942  26.942  29.288  1.00  0.00     0.134 A 
ATOM     13  C   UNL     1       8.324  26.592  29.071  1.00  0.00     0.146 A 
ATOM     14  O   UNL     1       9.429  26.004  28.510  1.00  0.00    -0.452 OA
ATOM     15  C   UNL     1       6.164  27.880  30.294  1.00  0.00     0.093 A 
ATOM     16  C   UNL     1       8.552  27.531  30.077  1.00  0.00     0.094 A 
ATOM     17  C   UNL     1       7.470  28.167  30.681  1.00  0.00     0.123 A 
BRANCH  11  18
ATOM     18  C   UNL     1      10.474  24.505  26.961  1.00  0.00     0.025 A 
ATOM     19  C   UNL     1      11.044  25.051  25.804  1.00  0.00     0.012 A 
ATOM     20  C   UNL     1      11.044  23.365  27.520  1.00  0.00     0.057 A 
ATOM     21  C   UNL     1      12.128  24.419  25.177  1.00  0.00    -0.004 A 
ATOM     22  C   UNL     1      12.114  22.762  26.864  1.00  0.00     0.108 A 
ATOM     23  C   UNL     1      12.683  23.222  25.656  1.00  0.00    -0.066 A 
ATOM     24  O   UNL     1      13.590  22.570  25.034  1.00  0.00    -0.870 OA
BRANCH  22  25
ATOM     25  O   UNL     1      12.641  21.600  27.380  1.00  0.00    -0.509 OA
ATOM     26  H   UNL     1      13.596  21.789  27.204  1.00  0.00     0.293 HD
ENDBRANCH  22  25
ENDBRANCH  11  18
BRANCH  12  27
ATOM     27  O   UNL     1       4.636  26.705  28.949  1.00  0.00    -0.507 OA
ATOM     28  H   UNL     1       4.100  27.475  29.239  1.00  0.00     0.293 HD
ENDBRANCH  12  27
BRANCH  17  29
ATOM     29  O   UNL     1       7.734  29.079  31.660  1.00  0.00    -0.508 OA
ATOM     30  H   UNL     1       7.414  29.949  31.371  1.00  0.00     0.293 HD
ENDBRANCH  17  29
ENDBRANCH   6   7
ENDBRANCH   1   6
BRANCH   5  31
ATOM     31  O   UNL     1       5.129  22.046  26.605  1.00  0.00    -0.384 OA
ATOM     32  H   UNL     1       4.764  22.950  26.487  1.00  0.00     0.211 HD
ENDBRANCH   5  31
BRANCH   3  33
ATOM     33  C   UNL     1       8.543  21.174  23.726  1.00  0.00     0.171 C 
BRANCH  33  34
ATOM     34  O   UNL     1       8.391  20.188  22.694  1.00  0.00    -0.388 OA
ATOM     35  H   UNL     1       7.848  20.648  22.018  1.00  0.00     0.211 HD
ENDBRANCH  33  34
BRANCH  33  36
ATOM     36  C   UNL     1      10.014  21.617  23.732  1.00  0.00     0.190 C 
BRANCH  36  37
ATOM     37  O   UNL     1      10.818  20.522  24.187  1.00  0.00    -0.394 OA
ATOM     38  H   UNL     1      11.239  20.155  23.368  1.00  0.00     0.210 HD
ENDBRANCH  36  37
ENDBRANCH  33  36
ENDBRANCH   3  33
BRANCH   4  39
ATOM     39  O   UNL     1       5.774  20.109  24.323  1.00  0.00    -0.387 OA
ATOM     40  H   UNL     1       4.992  19.710  24.744  1.00  0.00     0.211 HD
ENDBRANCH   4  39
TORSDOF 12
ENDMDL
MODEL 9
REMARK VINA RESULT:    -6.437      2.241      5.501
REMARK INTER + INTRA:         -11.779
REMARK INTER:                 -10.142
REMARK INTRA:                  -1.637
REMARK UNBOUND:                -2.144
REMARK SMILES O=c1c(O[C@@H]2O[C@H]([C@H](O)CO)[C@H](O)[C@H]2O)c(-c2ccc([O-])c(O)c2)oc2cc(O)cc(O)c12
REMARK SMILES IDX 5 1 6 2 7 3 12 4 14 5 4 6 3 7 1 8 2 9 33 10 16 11 31 12
REMARK SMILES IDX 26 13 25 14 30 15 27 16 28 17 17 18 18 19 24 20 19 21 22 22
REMARK SMILES IDX 20 23 21 24 23 25 32 27 29 29 15 31 8 33 9 34 10 36 11 37
REMARK SMILES IDX 13 39
REMARK H PARENT 23 26 32 28 29 30 15 32 9 35 11 38 13 40
ROOT
ATOM      1  C   UNL     1      10.868  25.988  27.934  1.00  0.00     0.339 C 
ATOM      2  O   UNL     1      12.080  25.890  27.162  1.00  0.00    -0.332 OA
ATOM      3  C   UNL     1      13.178  26.336  27.989  1.00  0.00     0.185 C 
ATOM      4  C   UNL     1      12.531  27.384  28.897  1.00  0.00     0.181 C 
ATOM      5  C   UNL     1      11.200  26.738  29.229  1.00  0.00     0.214 C 
ENDROOT
BRANCH   1   6
ATOM      6  O   UNL     1      10.401  24.691  28.307  1.00  0.00    -0.454 OA
BRANCH   6   7
ATOM      7  C   UNL     1       9.119  24.408  27.881  1.00  0.00     0.214 A 
ATOM      8  O   UNL     1       8.092  25.534  29.714  1.00  0.00    -0.285 OA
ATOM      9  C   UNL     1       7.958  24.882  28.678  1.00  0.00     0.239 A 
ATOM     10  C   UNL     1       6.621  24.533  28.179  1.00  0.00     0.111 A 
ATOM     11  C   UNL     1       8.872  23.630  26.812  1.00  0.00     0.180 A 
ATOM     12  C   UNL     1       5.457  24.957  28.832  1.00  0.00     0.134 A 
ATOM     13  C   UNL     1       6.522  23.758  27.024  1.00  0.00     0.146 A 
ATOM     14  O   UNL     1       7.618  23.299  26.336  1.00  0.00    -0.452 OA
ATOM     15  C   UNL     1       4.203  24.615  28.331  1.00  0.00     0.093 A 
ATOM     16  C   UNL     1       5.270  23.412  26.518  1.00  0.00     0.094 A 
ATOM     17  C   UNL     1       4.121  23.844  27.175  1.00  0.00     0.123 A 
BRANCH  11  18
ATOM     18  C   UNL     1       9.982  23.079  26.022  1.00  0.00     0.025 A 
ATOM     19  C   UNL     1       9.967  23.164  24.625  1.00  0.00     0.012 A 
ATOM     20  C   UNL     1      11.014  22.383  26.644  1.00  0.00     0.057 A 
ATOM     21  C   UNL     1      10.935  22.497  23.860  1.00  0.00    -0.004 A 
ATOM     22  C   UNL     1      11.951  21.726  25.850  1.00  0.00     0.108 A 
ATOM     23  C   UNL     1      11.944  21.713  24.438  1.00  0.00    -0.066 A 
ATOM     24  O   UNL     1      12.761  21.003  23.756  1.00  0.00    -0.870 OA
BRANCH  22  25
ATOM     25  O   UNL     1      12.937  20.985  26.461  1.00  0.00    -0.509 OA
ATOM     26  H   UNL     1      13.561  21.724  26.668  1.00  0.00     0.293 HD
ENDBRANCH  22  25
ENDBRANCH  11  18
BRANCH  12  27
ATOM     27  O   UNL     1       5.475  25.715  29.973  1.00  0.00    -0.507 OA
ATOM     28  H   UNL     1       6.148  25.337  30.581  1.00  0.00     0.293 HD
ENDBRANCH  12  27
BRANCH  17  29
ATOM     29  O   UNL     1       2.915  23.484  26.650  1.00  0.00    -0.508 OA
ATOM     30  H   UNL     1       2.294  24.223  26.757  1.00  0.00     0.293 HD
ENDBRANCH  17  29
ENDBRANCH   6   7
ENDBRANCH   1   6
BRANCH   5  31
ATOM     31  O   UNL     1      10.218  27.719  29.582  1.00  0.00    -0.384 OA
ATOM     32  H   UNL     1       9.373  27.232  29.689  1.00  0.00     0.211 HD
ENDBRANCH   5  31
BRANCH   3  33
ATOM     33  C   UNL     1      13.853  25.135  28.682  1.00  0.00     0.171 C 
BRANCH  33  34
ATOM     34  O   UNL     1      15.033  25.540  29.391  1.00  0.00    -0.388 OA
ATOM     35  H   UNL     1      14.678  25.941  30.214  1.00  0.00     0.211 HD
ENDBRANCH  33  34
BRANCH  33  36
ATOM     36  C   UNL     1      14.268  24.057  27.669  1.00  0.00     0.190 C 
BRANCH  36  37
ATOM     37  O   UNL     1      14.552  22.847  28.381  1.00  0.00    -0.394 OA
ATOM     38  H   UNL     1      15.522  22.886  28.578  1.00  0.00     0.210 HD
ENDBRANCH  36  37
ENDBRANCH  33  36
ENDBRANCH   3  33
BRANCH   4  39
ATOM     39  O   UNL     1      13.242  27.756  30.064  1.00  0.00    -0.387 OA
ATOM     40  H   UNL     1      13.457  26.928  30.528  1.00  0.00     0.211 HD
ENDBRANCH   4  39
TORSDOF 12
ENDMDL
