MODEL 1
REMARK VINA RESULT:    -7.511      0.000      0.000
REMARK INTER + INTRA:         -10.114
REMARK INTER:                  -9.706
REMARK INTRA:                  -0.408
REMARK UNBOUND:                -0.408
REMARK SMILES CC[C@](C)(O)C#Cc1cc2c(ccn2-c2cc(OC)nc(N)n2)cn1
REMARK SMILES IDX 7 1 8 2 9 3 10 4 11 5 12 6 13 7 14 8 24 9 25 10 6 11 3 12
REMARK SMILES IDX 4 13 2 14 1 15 5 16 15 18 16 19 23 20 17 21 21 22 20 23
REMARK SMILES IDX 18 24 19 25 22 26
REMARK H PARENT 5 17 22 27 22 28
ROOT
ATOM      1  C   UNL     1       5.378  22.860  26.191  1.00  0.00    -0.044 C 
ATOM      2  C   UNL     1       6.397  22.029  25.634  1.00  0.00     0.115 A 
ATOM      3  C   UNL     1       7.739  22.324  25.838  1.00  0.00     0.065 A 
ATOM      4  C   UNL     1       8.666  21.441  25.260  1.00  0.00     0.059 A 
ATOM      5  C   UNL     1       8.206  20.384  24.456  1.00  0.00     0.018 A 
ATOM      6  C   UNL     1       9.340  19.748  23.897  1.00  0.00     0.030 A 
ATOM      7  C   UNL     1      10.449  20.413  24.351  1.00  0.00     0.094 A 
ATOM      8  N   UNL     1      10.064  21.390  25.257  1.00  0.00    -0.301 N 
ATOM      9  C   UNL     1       6.827  20.170  24.319  1.00  0.00     0.122 A 
ATOM     10  N   UNL     1       5.933  20.987  24.918  1.00  0.00    -0.247 NA
ENDROOT
BRANCH   1  11
ATOM     11  C   UNL     1       4.517  23.558  26.657  1.00  0.00    -0.062 C 
ATOM     12  C   UNL     1       3.473  24.417  27.238  1.00  0.00     0.122 C 
ATOM     13  C   UNL     1       2.385  24.707  26.205  1.00  0.00     0.057 C 
BRANCH  12  14
ATOM     14  C   UNL     1       4.071  25.701  27.843  1.00  0.00     0.045 C 
ATOM     15  C   UNL     1       5.089  26.422  26.969  1.00  0.00     0.008 C 
ENDBRANCH  12  14
BRANCH  12  16
ATOM     16  O   UNL     1       2.847  23.694  28.304  1.00  0.00    -0.378 OA
ATOM     17  H   UNL     1       2.451  22.898  27.908  1.00  0.00     0.212 HD
ENDBRANCH  12  16
ENDBRANCH   1  11
BRANCH   8  18
ATOM     18  C   UNL     1      11.013  22.156  26.008  1.00  0.00     0.146 A 
ATOM     19  C   UNL     1      10.633  22.888  27.107  1.00  0.00     0.116 A 
ATOM     20  N   UNL     1      12.307  22.082  25.613  1.00  0.00    -0.195 NA
ATOM     21  C   UNL     1      11.644  23.571  27.740  1.00  0.00     0.220 A 
ATOM     22  C   UNL     1      13.208  22.777  26.308  1.00  0.00     0.225 A 
ATOM     23  N   UNL     1      12.927  23.550  27.353  1.00  0.00    -0.177 NA
BRANCH  21  24
ATOM     24  O   UNL     1      11.267  24.311  28.846  1.00  0.00    -0.481 OA
ATOM     25  C   UNL     1      12.234  25.287  29.225  1.00  0.00     0.280 C 
ENDBRANCH  21  24
BRANCH  22  26
ATOM     26  N   UNL     1      14.518  22.723  25.885  1.00  0.00    -0.368 N 
ATOM     27  H   UNL     1      14.565  22.830  24.882  1.00  0.00     0.159 HD
ATOM     28  H   UNL     1      15.092  23.336  26.446  1.00  0.00     0.159 HD
ENDBRANCH  22  26
ENDBRANCH   8  18
TORSDOF 6
ENDMDL
MODEL 2
REMARK VINA RESULT:    -7.453      1.370      1.893
REMARK INTER + INTRA:         -10.039
REMARK INTER:                  -9.443
REMARK INTRA:                  -0.596
REMARK UNBOUND:                -0.408
REMARK SMILES CC[C@](C)(O)C#Cc1cc2c(ccn2-c2cc(OC)nc(N)n2)cn1
REMARK SMILES IDX 7 1 8 2 9 3 10 4 11 5 12 6 13 7 14 8 24 9 25 10 6 11 3 12
REMARK SMILES IDX 4 13 2 14 1 15 5 16 15 18 16 19 23 20 17 21 21 22 20 23
REMARK SMILES IDX 18 24 19 25 22 26
REMARK H PARENT 5 17 22 27 22 28
ROOT
ATOM      1  C   UNL     1       5.382  22.801  26.185  1.00  0.00    -0.044 C 
ATOM      2  C   UNL     1       6.364  21.917  25.640  1.00  0.00     0.115 A 
ATOM      3  C   UNL     1       7.709  22.262  25.652  1.00  0.00     0.065 A 
ATOM      4  C   UNL     1       8.598  21.324  25.105  1.00  0.00     0.059 A 
ATOM      5  C   UNL     1       8.092  20.155  24.513  1.00  0.00     0.018 A 
ATOM      6  C   UNL     1       9.180  19.466  23.927  1.00  0.00     0.030 A 
ATOM      7  C   UNL     1      10.309  20.209  24.159  1.00  0.00     0.094 A 
ATOM      8  N   UNL     1       9.989  21.298  24.955  1.00  0.00    -0.301 N 
ATOM      9  C   UNL     1       6.714  19.898  24.560  1.00  0.00     0.122 A 
ATOM     10  N   UNL     1       5.862  20.775  25.134  1.00  0.00    -0.247 NA
ENDROOT
BRANCH   1  11
ATOM     11  C   UNL     1       4.553  23.542  26.640  1.00  0.00    -0.062 C 
ATOM     12  C   UNL     1       3.547  24.454  27.209  1.00  0.00     0.122 C 
ATOM     13  C   UNL     1       2.487  24.798  26.164  1.00  0.00     0.057 C 
BRANCH  12  14
ATOM     14  C   UNL     1       4.203  25.707  27.819  1.00  0.00     0.045 C 
ATOM     15  C   UNL     1       5.241  26.393  26.941  1.00  0.00     0.008 C 
ENDBRANCH  12  14
BRANCH  12  16
ATOM     16  O   UNL     1       2.874  23.765  28.268  1.00  0.00    -0.378 OA
ATOM     17  H   UNL     1       3.400  22.971  28.465  1.00  0.00     0.212 HD
ENDBRANCH  12  16
ENDBRANCH   1  11
BRANCH   8  18
ATOM     18  C   UNL     1      10.987  22.181  25.483  1.00  0.00     0.146 A 
ATOM     19  C   UNL     1      12.006  22.661  24.697  1.00  0.00     0.116 A 
ATOM     20  N   UNL     1      10.846  22.556  26.777  1.00  0.00    -0.195 NA
ATOM     21  C   UNL     1      12.891  23.504  25.327  1.00  0.00     0.220 A 
ATOM     22  C   UNL     1      11.757  23.388  27.283  1.00  0.00     0.225 A 
ATOM     23  N   UNL     1      12.802  23.866  26.615  1.00  0.00    -0.177 NA
BRANCH  21  24
ATOM     24  O   UNL     1      13.920  23.991  24.541  1.00  0.00    -0.481 OA
ATOM     25  C   UNL     1      14.917  24.684  25.287  1.00  0.00     0.280 C 
ENDBRANCH  21  24
BRANCH  22  26
ATOM     26  N   UNL     1      11.627  23.744  28.609  1.00  0.00    -0.368 N 
ATOM     27  H   UNL     1      12.530  23.974  28.998  1.00  0.00     0.159 HD
ATOM     28  H   UNL     1      10.886  24.422  28.718  1.00  0.00     0.159 HD
ENDBRANCH  22  26
ENDBRANCH   8  18
TORSDOF 6
ENDMDL
MODEL 3
REMARK VINA RESULT:    -6.955      2.247      7.300
REMARK INTER + INTRA:          -9.396
REMARK INTER:                  -8.925
REMARK INTRA:                  -0.471
REMARK UNBOUND:                -0.408
REMARK SMILES CC[C@](C)(O)C#Cc1cc2c(ccn2-c2cc(OC)nc(N)n2)cn1
REMARK SMILES IDX 7 1 8 2 9 3 10 4 11 5 12 6 13 7 14 8 24 9 25 10 6 11 3 12
REMARK SMILES IDX 4 13 2 14 1 15 5 16 15 18 16 19 23 20 17 21 21 22 20 23
REMARK SMILES IDX 18 24 19 25 22 26
REMARK H PARENT 5 17 22 27 22 28
ROOT
ATOM      1  C   UNL     1      11.994  22.748  26.433  1.00  0.00    -0.044 C 
ATOM      2  C   UNL     1      10.870  22.090  25.846  1.00  0.00     0.115 A 
ATOM      3  C   UNL     1       9.585  22.338  26.309  1.00  0.00     0.065 A 
ATOM      4  C   UNL     1       8.545  21.653  25.660  1.00  0.00     0.059 A 
ATOM      5  C   UNL     1       8.853  20.714  24.662  1.00  0.00     0.018 A 
ATOM      6  C   UNL     1       7.646  20.081  24.282  1.00  0.00     0.030 A 
ATOM      7  C   UNL     1       6.641  20.625  25.041  1.00  0.00     0.094 A 
ATOM      8  N   UNL     1       7.155  21.650  25.820  1.00  0.00    -0.301 N 
ATOM      9  C   UNL     1      10.187  20.542  24.263  1.00  0.00     0.122 A 
ATOM     10  N   UNL     1      11.183  21.240  24.850  1.00  0.00    -0.247 NA
ENDROOT
BRANCH   1  11
ATOM     11  C   UNL     1      12.942  23.297  26.926  1.00  0.00    -0.062 C 
ATOM     12  C   UNL     1      14.113  23.964  27.519  1.00  0.00     0.122 C 
ATOM     13  C   UNL     1      13.682  25.201  28.306  1.00  0.00     0.057 C 
BRANCH  12  14
ATOM     14  C   UNL     1      15.180  24.283  26.454  1.00  0.00     0.045 C 
ATOM     15  C   UNL     1      14.740  25.242  25.356  1.00  0.00     0.008 C 
ENDBRANCH  12  14
BRANCH  12  16
ATOM     16  O   UNL     1      14.706  23.062  28.461  1.00  0.00    -0.378 OA
ATOM     17  H   UNL     1      15.669  23.127  28.343  1.00  0.00     0.212 HD
ENDBRANCH  12  16
ENDBRANCH   1  11
BRANCH   8  18
ATOM     18  C   UNL     1       6.320  22.502  26.614  1.00  0.00     0.146 A 
ATOM     19  C   UNL     1       5.070  22.881  26.186  1.00  0.00     0.116 A 
ATOM     20  N   UNL     1       6.802  22.872  27.825  1.00  0.00    -0.195 NA
ATOM     21  C   UNL     1       4.372  23.694  27.047  1.00  0.00     0.220 A 
ATOM     22  C   UNL     1       6.034  23.654  28.585  1.00  0.00     0.225 A 
ATOM     23  N   UNL     1       4.834  24.109  28.235  1.00  0.00    -0.177 NA
BRANCH  21  24
ATOM     24  O   UNL     1       3.114  24.079  26.621  1.00  0.00    -0.481 OA
ATOM     25  C   UNL     1       3.146  25.109  25.637  1.00  0.00     0.280 C 
ENDBRANCH  21  24
BRANCH  22  26
ATOM     26  N   UNL     1       6.540  24.053  29.803  1.00  0.00    -0.368 N 
ATOM     27  H   UNL     1       7.500  24.349  29.701  1.00  0.00     0.159 HD
ATOM     28  H   UNL     1       5.901  24.692  30.254  1.00  0.00     0.159 HD
ENDBRANCH  22  26
ENDBRANCH   8  18
TORSDOF 6
ENDMDL
MODEL 4
REMARK VINA RESULT:    -6.950      3.063      7.118
REMARK INTER + INTRA:          -9.390
REMARK INTER:                  -8.800
REMARK INTRA:                  -0.590
REMARK UNBOUND:                -0.408
REMARK SMILES CC[C@](C)(O)C#Cc1cc2c(ccn2-c2cc(OC)nc(N)n2)cn1
REMARK SMILES IDX 7 1 8 2 9 3 10 4 11 5 12 6 13 7 14 8 24 9 25 10 6 11 3 12
REMARK SMILES IDX 4 13 2 14 1 15 5 16 15 18 16 19 23 20 17 21 21 22 20 23
REMARK SMILES IDX 18 24 19 25 22 26
REMARK H PARENT 5 17 22 27 22 28
ROOT
ATOM      1  C   UNL     1      11.921  22.920  24.923  1.00  0.00    -0.044 C 
ATOM      2  C   UNL     1      10.716  22.153  24.944  1.00  0.00     0.115 A 
ATOM      3  C   UNL     1       9.687  22.478  25.818  1.00  0.00     0.065 A 
ATOM      4  C   UNL     1       8.538  21.673  25.756  1.00  0.00     0.059 A 
ATOM      5  C   UNL     1       8.520  20.559  24.900  1.00  0.00     0.018 A 
ATOM      6  C   UNL     1       7.315  19.856  25.138  1.00  0.00     0.030 A 
ATOM      7  C   UNL     1       6.633  20.532  26.117  1.00  0.00     0.094 A 
ATOM      8  N   UNL     1       7.318  21.693  26.441  1.00  0.00    -0.301 N 
ATOM      9  C   UNL     1       9.612  20.321  24.052  1.00  0.00     0.122 A 
ATOM     10  N   UNL     1      10.696  21.127  24.073  1.00  0.00    -0.247 NA
ENDROOT
BRANCH   1  11
ATOM     11  C   UNL     1      12.937  23.561  24.903  1.00  0.00    -0.062 C 
ATOM     12  C   UNL     1      14.175  24.357  24.870  1.00  0.00     0.122 C 
ATOM     13  C   UNL     1      15.085  23.978  26.036  1.00  0.00     0.057 C 
BRANCH  12  14
ATOM     14  C   UNL     1      13.873  25.867  24.823  1.00  0.00     0.045 C 
ATOM     15  C   UNL     1      14.786  26.689  23.923  1.00  0.00     0.008 C 
ENDBRANCH  12  14
BRANCH  12  16
ATOM     16  O   UNL     1      14.882  24.026  23.670  1.00  0.00    -0.378 OA
ATOM     17  H   UNL     1      14.220  23.705  23.033  1.00  0.00     0.212 HD
ENDBRANCH  12  16
ENDBRANCH   1  11
BRANCH   8  18
ATOM     18  C   UNL     1       6.780  22.678  27.332  1.00  0.00     0.146 A 
ATOM     19  C   UNL     1       7.297  22.862  28.591  1.00  0.00     0.116 A 
ATOM     20  N   UNL     1       5.774  23.448  26.853  1.00  0.00    -0.195 NA
ATOM     21  C   UNL     1       6.693  23.844  29.339  1.00  0.00     0.220 A 
ATOM     22  C   UNL     1       5.268  24.380  27.663  1.00  0.00     0.225 A 
ATOM     23  N   UNL     1       5.671  24.599  28.911  1.00  0.00    -0.177 NA
BRANCH  21  24
ATOM     24  O   UNL     1       7.208  24.035  30.609  1.00  0.00    -0.481 OA
ATOM     25  C   UNL     1       6.295  24.675  31.496  1.00  0.00     0.280 C 
ENDBRANCH  21  24
BRANCH  22  26
ATOM     26  N   UNL     1       4.225  25.141  27.183  1.00  0.00    -0.368 N 
ATOM     27  H   UNL     1       3.969  24.836  26.255  1.00  0.00     0.159 HD
ATOM     28  H   UNL     1       3.489  25.200  27.873  1.00  0.00     0.159 HD
ENDBRANCH  22  26
ENDBRANCH   8  18
TORSDOF 6
ENDMDL
MODEL 5
REMARK VINA RESULT:    -6.847      5.666     10.154
REMARK INTER + INTRA:          -9.256
REMARK INTER:                  -8.586
REMARK INTRA:                  -0.671
REMARK UNBOUND:                -0.408
REMARK SMILES CC[C@](C)(O)C#Cc1cc2c(ccn2-c2cc(OC)nc(N)n2)cn1
REMARK SMILES IDX 7 1 8 2 9 3 10 4 11 5 12 6 13 7 14 8 24 9 25 10 6 11 3 12
REMARK SMILES IDX 4 13 2 14 1 15 5 16 15 18 16 19 23 20 17 21 21 22 20 23
REMARK SMILES IDX 18 24 19 25 22 26
REMARK H PARENT 5 17 22 27 22 28
ROOT
ATOM      1  C   UNL     1      16.363  24.861  21.349  1.00  0.00    -0.044 C 
ATOM      2  C   UNL     1      16.291  25.872  22.355  1.00  0.00     0.115 A 
ATOM      3  C   UNL     1      15.524  25.679  23.496  1.00  0.00     0.065 A 
ATOM      4  C   UNL     1      15.526  26.725  24.433  1.00  0.00     0.059 A 
ATOM      5  C   UNL     1      16.213  27.914  24.140  1.00  0.00     0.018 A 
ATOM      6  C   UNL     1      15.936  28.836  25.178  1.00  0.00     0.030 A 
ATOM      7  C   UNL     1      15.098  28.213  26.066  1.00  0.00     0.094 A 
ATOM      8  N   UNL     1      14.910  26.895  25.678  1.00  0.00    -0.301 N 
ATOM      9  C   UNL     1      16.965  28.005  22.959  1.00  0.00     0.122 A 
ATOM     10  N   UNL     1      17.007  26.978  22.081  1.00  0.00    -0.247 NA
ENDROOT
BRANCH   1  11
ATOM     11  C   UNL     1      16.425  24.013  20.499  1.00  0.00    -0.062 C 
ATOM     12  C   UNL     1      16.487  22.970  19.461  1.00  0.00     0.122 C 
ATOM     13  C   UNL     1      17.511  23.343  18.390  1.00  0.00     0.057 C 
BRANCH  12  14
ATOM     14  C   UNL     1      15.094  22.679  18.871  1.00  0.00     0.045 C 
ATOM     15  C   UNL     1      14.327  23.897  18.377  1.00  0.00     0.008 C 
ENDBRANCH  12  14
BRANCH  12  16
ATOM     16  O   UNL     1      16.953  21.763  20.075  1.00  0.00    -0.378 OA
ATOM     17  H   UNL     1      16.486  21.029  19.639  1.00  0.00     0.212 HD
ENDBRANCH  12  16
ENDBRANCH   1  11
BRANCH   8  18
ATOM     18  C   UNL     1      14.196  25.952  26.487  1.00  0.00     0.146 A 
ATOM     19  C   UNL     1      12.828  25.998  26.600  1.00  0.00     0.116 A 
ATOM     20  N   UNL     1      14.931  24.987  27.091  1.00  0.00    -0.195 NA
ATOM     21  C   UNL     1      12.269  25.031  27.401  1.00  0.00     0.220 A 
ATOM     22  C   UNL     1      14.283  24.092  27.837  1.00  0.00     0.225 A 
ATOM     23  N   UNL     1      12.969  24.085  28.043  1.00  0.00    -0.177 NA
BRANCH  21  24
ATOM     24  O   UNL     1      10.892  25.072  27.520  1.00  0.00    -0.481 OA
ATOM     25  C   UNL     1      10.347  23.912  28.145  1.00  0.00     0.280 C 
ENDBRANCH  21  24
BRANCH  22  26
ATOM     26  N   UNL     1      15.037  23.130  28.475  1.00  0.00    -0.368 N 
ATOM     27  H   UNL     1      15.784  23.563  28.997  1.00  0.00     0.159 HD
ATOM     28  H   UNL     1      14.436  22.486  28.968  1.00  0.00     0.159 HD
ENDBRANCH  22  26
ENDBRANCH   8  18
TORSDOF 6
ENDMDL
MODEL 6
REMARK VINA RESULT:    -6.813      4.860      9.735
REMARK INTER + INTRA:          -9.212
REMARK INTER:                  -8.661
REMARK INTRA:                  -0.551
REMARK UNBOUND:                -0.408
REMARK SMILES CC[C@](C)(O)C#Cc1cc2c(ccn2-c2cc(OC)nc(N)n2)cn1
REMARK SMILES IDX 7 1 8 2 9 3 10 4 11 5 12 6 13 7 14 8 24 9 25 10 6 11 3 12
REMARK SMILES IDX 4 13 2 14 1 15 5 16 15 18 16 19 23 20 17 21 21 22 20 23
REMARK SMILES IDX 18 24 19 25 22 26
REMARK H PARENT 5 17 22 27 22 28
ROOT
ATOM      1  C   UNL     1      16.038  24.808  22.557  1.00  0.00    -0.044 C 
ATOM      2  C   UNL     1      15.703  24.737  23.944  1.00  0.00     0.115 A 
ATOM      3  C   UNL     1      14.455  24.280  24.347  1.00  0.00     0.065 A 
ATOM      4  C   UNL     1      14.224  24.236  25.731  1.00  0.00     0.059 A 
ATOM      5  C   UNL     1      15.205  24.721  26.612  1.00  0.00     0.018 A 
ATOM      6  C   UNL     1      14.663  24.686  27.918  1.00  0.00     0.030 A 
ATOM      7  C   UNL     1      13.385  24.198  27.819  1.00  0.00     0.094 A 
ATOM      8  N   UNL     1      13.132  23.831  26.506  1.00  0.00    -0.301 N 
ATOM      9  C   UNL     1      16.437  25.155  26.101  1.00  0.00     0.122 A 
ATOM     10  N   UNL     1      16.681  25.149  24.773  1.00  0.00    -0.247 NA
ENDROOT
BRANCH   1  11
ATOM     11  C   UNL     1      16.323  24.871  21.392  1.00  0.00    -0.062 C 
ATOM     12  C   UNL     1      16.687  24.946  19.967  1.00  0.00     0.122 C 
ATOM     13  C   UNL     1      15.468  24.671  19.089  1.00  0.00     0.057 C 
BRANCH  12  14
ATOM     14  C   UNL     1      17.873  24.019  19.639  1.00  0.00     0.045 C 
ATOM     15  C   UNL     1      17.774  23.277  18.313  1.00  0.00     0.008 C 
ENDBRANCH  12  14
BRANCH  12  16
ATOM     16  O   UNL     1      17.103  26.287  19.687  1.00  0.00    -0.378 OA
ATOM     17  H   UNL     1      16.528  26.874  20.208  1.00  0.00     0.212 HD
ENDBRANCH  12  16
ENDBRANCH   1  11
BRANCH   8  18
ATOM     18  C   UNL     1      11.929  23.155  26.118  1.00  0.00     0.146 A 
ATOM     19  C   UNL     1      11.965  22.000  25.376  1.00  0.00     0.116 A 
ATOM     20  N   UNL     1      10.763  23.684  26.560  1.00  0.00    -0.195 NA
ATOM     21  C   UNL     1      10.740  21.451  25.077  1.00  0.00     0.220 A 
ATOM     22  C   UNL     1       9.633  23.063  26.219  1.00  0.00     0.225 A 
ATOM     23  N   UNL     1       9.566  21.969  25.467  1.00  0.00    -0.177 NA
BRANCH  21  24
ATOM     24  O   UNL     1      10.769  20.288  24.330  1.00  0.00    -0.481 OA
ATOM     25  C   UNL     1       9.472  19.816  23.974  1.00  0.00     0.280 C 
ENDBRANCH  21  24
BRANCH  22  26
ATOM     26  N   UNL     1       8.447  23.621  26.645  1.00  0.00    -0.368 N 
ATOM     27  H   UNL     1       8.629  24.441  27.205  1.00  0.00     0.159 HD
ATOM     28  H   UNL     1       7.808  23.719  25.869  1.00  0.00     0.159 HD
ENDBRANCH  22  26
ENDBRANCH   8  18
TORSDOF 6
ENDMDL
MODEL 7
REMARK VINA RESULT:    -6.665      5.104      9.763
REMARK INTER + INTRA:          -9.021
REMARK INTER:                  -8.423
REMARK INTRA:                  -0.598
REMARK UNBOUND:                -0.408
REMARK SMILES CC[C@](C)(O)C#Cc1cc2c(ccn2-c2cc(OC)nc(N)n2)cn1
REMARK SMILES IDX 7 1 8 2 9 3 10 4 11 5 12 6 13 7 14 8 24 9 25 10 6 11 3 12
REMARK SMILES IDX 4 13 2 14 1 15 5 16 15 18 16 19 23 20 17 21 21 22 20 23
REMARK SMILES IDX 18 24 19 25 22 26
REMARK H PARENT 5 17 22 27 22 28
ROOT
ATOM      1  C   UNL     1      16.173  24.361  22.015  1.00  0.00    -0.044 C 
ATOM      2  C   UNL     1      16.081  25.058  23.259  1.00  0.00     0.115 A 
ATOM      3  C   UNL     1      14.896  25.056  23.983  1.00  0.00     0.065 A 
ATOM      4  C   UNL     1      14.908  25.759  25.199  1.00  0.00     0.059 A 
ATOM      5  C   UNL     1      16.055  26.480  25.570  1.00  0.00     0.018 A 
ATOM      6  C   UNL     1      15.747  27.197  26.751  1.00  0.00     0.030 A 
ATOM      7  C   UNL     1      14.444  26.915  27.073  1.00  0.00     0.094 A 
ATOM      8  N   UNL     1      13.944  25.968  26.192  1.00  0.00    -0.301 N 
ATOM      9  C   UNL     1      17.204  26.411  24.768  1.00  0.00     0.122 A 
ATOM     10  N   UNL     1      17.212  25.691  23.625  1.00  0.00    -0.247 NA
ENDROOT
BRANCH   1  11
ATOM     11  C   UNL     1      16.255  23.778  20.968  1.00  0.00    -0.062 C 
ATOM     12  C   UNL     1      16.342  23.056  19.688  1.00  0.00     0.122 C 
ATOM     13  C   UNL     1      17.248  23.805  18.712  1.00  0.00     0.057 C 
BRANCH  12  14
ATOM     14  C   UNL     1      14.944  22.778  19.101  1.00  0.00     0.045 C 
ATOM     15  C   UNL     1      14.312  23.938  18.345  1.00  0.00     0.008 C 
ENDBRANCH  12  14
BRANCH  12  16
ATOM     16  O   UNL     1      16.961  21.789  19.935  1.00  0.00    -0.378 OA
ATOM     17  H   UNL     1      17.120  21.380  19.067  1.00  0.00     0.212 HD
ENDBRANCH  12  16
ENDBRANCH   1  11
BRANCH   8  18
ATOM     18  C   UNL     1      12.653  25.370  26.360  1.00  0.00     0.146 A 
ATOM     19  C   UNL     1      12.296  24.759  27.538  1.00  0.00     0.116 A 
ATOM     20  N   UNL     1      11.790  25.479  25.323  1.00  0.00    -0.195 NA
ATOM     21  C   UNL     1      11.027  24.232  27.568  1.00  0.00     0.220 A 
ATOM     22  C   UNL     1      10.579  24.940  25.465  1.00  0.00     0.225 A 
ATOM     23  N   UNL     1      10.161  24.290  26.547  1.00  0.00    -0.177 NA
BRANCH  21  24
ATOM     24  O   UNL     1      10.661  23.615  28.751  1.00  0.00    -0.481 OA
ATOM     25  C   UNL     1       9.596  22.682  28.592  1.00  0.00     0.280 C 
ENDBRANCH  21  24
BRANCH  22  26
ATOM     26  N   UNL     1       9.713  25.027  24.396  1.00  0.00    -0.368 N 
ATOM     27  H   UNL     1       8.952  25.654  24.614  1.00  0.00     0.159 HD
ATOM     28  H   UNL     1      10.228  25.198  23.543  1.00  0.00     0.159 HD
ENDBRANCH  22  26
ENDBRANCH   8  18
TORSDOF 6
ENDMDL
MODEL 8
REMARK VINA RESULT:    -6.537      1.782      2.210
REMARK INTER + INTRA:          -8.855
REMARK INTER:                  -8.243
REMARK INTRA:                  -0.613
REMARK UNBOUND:                -0.408
REMARK SMILES CC[C@](C)(O)C#Cc1cc2c(ccn2-c2cc(OC)nc(N)n2)cn1
REMARK SMILES IDX 7 1 8 2 9 3 10 4 11 5 12 6 13 7 14 8 24 9 25 10 6 11 3 12
REMARK SMILES IDX 4 13 2 14 1 15 5 16 15 18 16 19 23 20 17 21 21 22 20 23
REMARK SMILES IDX 18 24 19 25 22 26
REMARK H PARENT 5 17 22 27 22 28
ROOT
ATOM      1  C   UNL     1       6.218  22.978  26.686  1.00  0.00    -0.044 C 
ATOM      2  C   UNL     1       7.367  22.348  26.116  1.00  0.00     0.115 A 
ATOM      3  C   UNL     1       8.624  22.922  26.247  1.00  0.00     0.065 A 
ATOM      4  C   UNL     1       9.692  22.222  25.663  1.00  0.00     0.059 A 
ATOM      5  C   UNL     1       9.433  21.057  24.923  1.00  0.00     0.018 A 
ATOM      6  C   UNL     1      10.653  20.641  24.338  1.00  0.00     0.030 A 
ATOM      7  C   UNL     1      11.616  21.541  24.715  1.00  0.00     0.094 A 
ATOM      8  N   UNL     1      11.070  22.459  25.598  1.00  0.00    -0.301 N 
ATOM      9  C   UNL     1       8.124  20.557  24.856  1.00  0.00     0.122 A 
ATOM     10  N   UNL     1       7.103  21.201  25.464  1.00  0.00    -0.247 NA
ENDROOT
BRANCH   1  11
ATOM     11  C   UNL     1       5.249  23.505  27.163  1.00  0.00    -0.062 C 
ATOM     12  C   UNL     1       4.069  24.153  27.760  1.00  0.00     0.122 C 
ATOM     13  C   UNL     1       3.157  24.711  26.669  1.00  0.00     0.057 C 
BRANCH  12  14
ATOM     14  C   UNL     1       4.475  25.220  28.795  1.00  0.00     0.045 C 
ATOM     15  C   UNL     1       5.648  24.848  29.691  1.00  0.00     0.008 C 
ENDBRANCH  12  14
BRANCH  12  16
ATOM     16  O   UNL     1       3.318  23.150  28.453  1.00  0.00    -0.378 OA
ATOM     17  H   UNL     1       3.614  23.167  29.380  1.00  0.00     0.212 HD
ENDBRANCH  12  16
ENDBRANCH   1  11
BRANCH   8  18
ATOM     18  C   UNL     1      11.867  23.439  26.275  1.00  0.00     0.146 A 
ATOM     19  C   UNL     1      12.943  23.076  27.048  1.00  0.00     0.116 A 
ATOM     20  N   UNL     1      11.537  24.738  26.075  1.00  0.00    -0.195 NA
ATOM     21  C   UNL     1      13.625  24.115  27.636  1.00  0.00     0.220 A 
ATOM     22  C   UNL     1      12.275  25.665  26.687  1.00  0.00     0.225 A 
ATOM     23  N   UNL     1      13.303  25.408  27.490  1.00  0.00    -0.177 NA
BRANCH  21  24
ATOM     24  O   UNL     1      14.709  23.757  28.416  1.00  0.00    -0.481 OA
ATOM     25  C   UNL     1      15.952  23.844  27.725  1.00  0.00     0.280 C 
ENDBRANCH  21  24
BRANCH  22  26
ATOM     26  N   UNL     1      11.917  26.984  26.505  1.00  0.00    -0.368 N 
ATOM     27  H   UNL     1      11.963  27.481  27.383  1.00  0.00     0.159 HD
ATOM     28  H   UNL     1      12.418  27.377  25.720  1.00  0.00     0.159 HD
ENDBRANCH  22  26
ENDBRANCH   8  18
TORSDOF 6
ENDMDL
MODEL 9
REMARK VINA RESULT:    -6.399      3.385      5.527
REMARK INTER + INTRA:          -8.677
REMARK INTER:                  -8.040
REMARK INTRA:                  -0.638
REMARK UNBOUND:                -0.408
REMARK SMILES CC[C@](C)(O)C#Cc1cc2c(ccn2-c2cc(OC)nc(N)n2)cn1
REMARK SMILES IDX 7 1 8 2 9 3 10 4 11 5 12 6 13 7 14 8 24 9 25 10 6 11 3 12
REMARK SMILES IDX 4 13 2 14 1 15 5 16 15 18 16 19 23 20 17 21 21 22 20 23
REMARK SMILES IDX 18 24 19 25 22 26
REMARK H PARENT 5 17 22 27 22 28
ROOT
ATOM      1  C   UNL     1       9.495  21.589  25.016  1.00  0.00    -0.044 C 
ATOM      2  C   UNL     1      10.759  22.251  24.953  1.00  0.00     0.115 A 
ATOM      3  C   UNL     1      10.977  23.425  25.661  1.00  0.00     0.065 A 
ATOM      4  C   UNL     1      12.256  23.994  25.546  1.00  0.00     0.059 A 
ATOM      5  C   UNL     1      13.196  23.412  24.680  1.00  0.00     0.018 A 
ATOM      6  C   UNL     1      14.332  24.256  24.652  1.00  0.00     0.030 A 
ATOM      7  C   UNL     1      14.073  25.320  25.477  1.00  0.00     0.094 A 
ATOM      8  N   UNL     1      12.851  25.131  26.104  1.00  0.00    -0.301 N 
ATOM      9  C   UNL     1      12.877  22.220  24.014  1.00  0.00     0.122 A 
ATOM     10  N   UNL     1      11.665  21.642  24.165  1.00  0.00    -0.247 NA
ENDROOT
BRANCH   1  11
ATOM     11  C   UNL     1       8.432  21.031  25.063  1.00  0.00    -0.062 C 
ATOM     12  C   UNL     1       7.132  20.340  25.108  1.00  0.00     0.122 C 
ATOM     13  C   UNL     1       6.608  20.282  26.542  1.00  0.00     0.057 C 
BRANCH  12  14
ATOM     14  C   UNL     1       7.211  18.948  24.452  1.00  0.00     0.045 C 
ATOM     15  C   UNL     1       8.023  18.878  23.166  1.00  0.00     0.008 C 
ENDBRANCH  12  14
BRANCH  12  16
ATOM     16  O   UNL     1       6.193  21.114  24.356  1.00  0.00    -0.378 OA
ATOM     17  H   UNL     1       5.432  20.535  24.176  1.00  0.00     0.212 HD
ENDBRANCH  12  16
ENDBRANCH   1  11
BRANCH   8  18
ATOM     18  C   UNL     1      12.374  26.007  27.133  1.00  0.00     0.146 A 
ATOM     19  C   UNL     1      12.453  25.662  28.460  1.00  0.00     0.116 A 
ATOM     20  N   UNL     1      11.889  27.208  26.735  1.00  0.00    -0.195 NA
ATOM     21  C   UNL     1      11.965  26.596  29.343  1.00  0.00     0.220 A 
ATOM     22  C   UNL     1      11.452  28.043  27.679  1.00  0.00     0.225 A 
ATOM     23  N   UNL     1      11.445  27.777  28.982  1.00  0.00    -0.177 NA
BRANCH  21  24
ATOM     24  O   UNL     1      12.041  26.254  30.681  1.00  0.00    -0.481 OA
ATOM     25  C   UNL     1      11.675  27.318  31.555  1.00  0.00     0.280 C 
ENDBRANCH  21  24
BRANCH  22  26
ATOM     26  N   UNL     1      10.932  29.251  27.268  1.00  0.00    -0.368 N 
ATOM     27  H   UNL     1      10.656  29.802  28.069  1.00  0.00     0.159 HD
ATOM     28  H   UNL     1      11.546  29.685  26.594  1.00  0.00     0.159 HD
ENDBRANCH  22  26
ENDBRANCH   8  18
TORSDOF 6
ENDMDL
