MODEL 1
REMARK VINA RESULT:    -6.518      0.000      0.000
REMARK INTER + INTRA:         -10.223
REMARK INTER:                  -9.185
REMARK INTRA:                  -1.037
REMARK UNBOUND:                -1.037
REMARK SMILES C[C@H]([NH2+]Cc1ccc(OCc2cccc(F)c2)cc1)C(N)=O
REMARK SMILES IDX 5 1 6 2 7 3 8 4 18 5 19 6 4 7 3 8 2 11 1 12 20 13 21 14
REMARK SMILES IDX 22 15 9 18 10 19 11 20 12 21 17 22 13 23 15 24 14 25 16 26
REMARK H PARENT 3 9 3 10 21 16 21 17
ROOT
ATOM      1  C   UNL     1      11.393  22.047  24.089  1.00  0.00     0.006 A 
ATOM      2  C   UNL     1      11.175  20.684  24.331  1.00  0.00     0.013 A 
ATOM      3  C   UNL     1       9.873  20.190  24.436  1.00  0.00     0.047 A 
ATOM      4  C   UNL     1       8.770  21.037  24.312  1.00  0.00     0.119 A 
ATOM      5  C   UNL     1       8.982  22.393  24.079  1.00  0.00     0.047 A 
ATOM      6  C   UNL     1      10.284  22.897  23.972  1.00  0.00     0.013 A 
ENDROOT
BRANCH   1   7
ATOM      7  C   UNL     1      12.789  22.594  24.011  1.00  0.00     0.297 C 
BRANCH   7   8
ATOM      8  N   UNL     1      13.532  22.313  25.259  1.00  0.00    -0.333 N 
ATOM      9  H   UNL     1      12.943  21.797  25.924  1.00  0.00     0.347 HD
ATOM     10  H   UNL     1      14.292  21.637  25.057  1.00  0.00     0.347 HD
BRANCH   8  11
ATOM     11  C   UNL     1      14.197  23.493  25.939  1.00  0.00     0.269 C 
ATOM     12  C   UNL     1      13.800  24.765  25.210  1.00  0.00     0.086 C 
BRANCH  11  13
ATOM     13  C   UNL     1      13.759  23.493  27.414  1.00  0.00     0.275 C 
ATOM     14  N   UNL     1      14.658  23.149  28.369  1.00  0.00    -0.365 N 
ATOM     15  O   UNL     1      12.591  23.769  27.693  1.00  0.00    -0.268 OA
ATOM     16  H   UNL     1      14.339  23.130  29.335  1.00  0.00     0.159 HD
ATOM     17  H   UNL     1      15.609  22.841  28.206  1.00  0.00     0.159 HD
ENDBRANCH  11  13
ENDBRANCH   8  11
ENDBRANCH   7   8
ENDBRANCH   1   7
BRANCH   4  18
ATOM     18  O   UNL     1       7.563  20.409  24.423  1.00  0.00    -0.489 OA
BRANCH  18  19
ATOM     19  C   UNL     1       7.039  20.127  25.724  1.00  0.00     0.265 C 
BRANCH  19  20
ATOM     20  C   UNL     1       6.831  21.369  26.561  1.00  0.00    -0.008 A 
ATOM     21  C   UNL     1       7.662  21.652  27.658  1.00  0.00     0.007 A 
ATOM     22  C   UNL     1       5.830  22.289  26.220  1.00  0.00     0.046 A 
ATOM     23  C   UNL     1       7.479  22.814  28.412  1.00  0.00     0.003 A 
ATOM     24  C   UNL     1       5.655  23.441  26.980  1.00  0.00     0.123 A 
ATOM     25  C   UNL     1       6.467  23.711  28.073  1.00  0.00     0.039 A 
ATOM     26  F   UNL     1       4.684  24.302  26.650  1.00  0.00    -0.207 F 
ENDBRANCH  19  20
ENDBRANCH  18  19
ENDBRANCH   4  18
TORSDOF 7
ENDMDL
MODEL 2
REMARK VINA RESULT:    -6.491      1.013      1.770
REMARK INTER + INTRA:         -10.185
REMARK INTER:                  -9.182
REMARK INTRA:                  -1.003
REMARK UNBOUND:                -1.037
REMARK SMILES C[C@H]([NH2+]Cc1ccc(OCc2cccc(F)c2)cc1)C(N)=O
REMARK SMILES IDX 5 1 6 2 7 3 8 4 18 5 19 6 4 7 3 8 2 11 1 12 20 13 21 14
REMARK SMILES IDX 22 15 9 18 10 19 11 20 12 21 17 22 13 23 15 24 14 25 16 26
REMARK H PARENT 3 9 3 10 21 16 21 17
ROOT
ATOM      1  C   UNL     1      11.537  22.060  24.139  1.00  0.00     0.006 A 
ATOM      2  C   UNL     1      10.444  22.916  23.947  1.00  0.00     0.013 A 
ATOM      3  C   UNL     1       9.144  22.405  23.951  1.00  0.00     0.047 A 
ATOM      4  C   UNL     1       8.908  21.041  24.138  1.00  0.00     0.119 A 
ATOM      5  C   UNL     1       9.992  20.187  24.323  1.00  0.00     0.047 A 
ATOM      6  C   UNL     1      11.298  20.690  24.320  1.00  0.00     0.013 A 
ENDROOT
BRANCH   1   7
ATOM      7  C   UNL     1      12.939  22.595  24.100  1.00  0.00     0.297 C 
BRANCH   7   8
ATOM      8  N   UNL     1      13.625  22.360  25.390  1.00  0.00    -0.333 N 
ATOM      9  H   UNL     1      12.988  21.917  26.065  1.00  0.00     0.347 HD
ATOM     10  H   UNL     1      14.356  21.636  25.258  1.00  0.00     0.347 HD
BRANCH   8  11
ATOM     11  C   UNL     1      14.327  23.548  26.017  1.00  0.00     0.269 C 
ATOM     12  C   UNL     1      13.914  24.808  25.276  1.00  0.00     0.086 C 
BRANCH  11  13
ATOM     13  C   UNL     1      13.946  23.584  27.508  1.00  0.00     0.275 C 
ATOM     14  N   UNL     1      14.860  23.195  28.431  1.00  0.00    -0.365 N 
ATOM     15  O   UNL     1      12.808  23.931  27.828  1.00  0.00    -0.268 OA
ATOM     16  H   UNL     1      14.577  23.201  29.408  1.00  0.00     0.159 HD
ATOM     17  H   UNL     1      15.784  22.829  28.235  1.00  0.00     0.159 HD
ENDBRANCH  11  13
ENDBRANCH   8  11
ENDBRANCH   7   8
ENDBRANCH   1   7
BRANCH   4  18
ATOM     18  O   UNL     1       7.588  20.692  24.133  1.00  0.00    -0.489 OA
BRANCH  18  19
ATOM     19  C   UNL     1       6.961  20.317  25.363  1.00  0.00     0.265 C 
BRANCH  19  20
ATOM     20  C   UNL     1       6.746  21.484  26.299  1.00  0.00    -0.008 A 
ATOM     21  C   UNL     1       5.687  22.386  26.104  1.00  0.00     0.007 A 
ATOM     22  C   UNL     1       7.577  21.655  27.415  1.00  0.00     0.046 A 
ATOM     23  C   UNL     1       5.480  23.449  26.987  1.00  0.00     0.003 A 
ATOM     24  C   UNL     1       7.364  22.718  28.287  1.00  0.00     0.123 A 
ATOM     25  C   UNL     1       6.326  23.617  28.082  1.00  0.00     0.039 A 
ATOM     26  F   UNL     1       8.177  22.876  29.339  1.00  0.00    -0.207 F 
ENDBRANCH  19  20
ENDBRANCH  18  19
ENDBRANCH   4  18
TORSDOF 7
ENDMDL
MODEL 3
REMARK VINA RESULT:    -6.449      4.127      7.271
REMARK INTER + INTRA:         -10.126
REMARK INTER:                  -9.203
REMARK INTRA:                  -0.923
REMARK UNBOUND:                -1.037
REMARK SMILES C[C@H]([NH2+]Cc1ccc(OCc2cccc(F)c2)cc1)C(N)=O
REMARK SMILES IDX 5 1 6 2 7 3 8 4 18 5 19 6 4 7 3 8 2 11 1 12 20 13 21 14
REMARK SMILES IDX 22 15 9 18 10 19 11 20 12 21 17 22 13 23 15 24 14 25 16 26
REMARK H PARENT 3 9 3 10 21 16 21 17
ROOT
ATOM      1  C   UNL     1       5.848  23.137  27.385  1.00  0.00     0.006 A 
ATOM      2  C   UNL     1       6.957  22.433  27.872  1.00  0.00     0.013 A 
ATOM      3  C   UNL     1       7.473  21.353  27.154  1.00  0.00     0.047 A 
ATOM      4  C   UNL     1       6.895  20.949  25.948  1.00  0.00     0.119 A 
ATOM      5  C   UNL     1       5.789  21.642  25.464  1.00  0.00     0.047 A 
ATOM      6  C   UNL     1       5.265  22.727  26.178  1.00  0.00     0.013 A 
ENDROOT
BRANCH   1   7
ATOM      7  C   UNL     1       5.264  24.277  28.168  1.00  0.00     0.297 C 
BRANCH   7   8
ATOM      8  N   UNL     1       3.790  24.302  28.037  1.00  0.00    -0.333 N 
ATOM      9  H   UNL     1       3.454  23.459  27.554  1.00  0.00     0.347 HD
ATOM     10  H   UNL     1       3.364  24.211  28.978  1.00  0.00     0.347 HD
BRANCH   8  11
ATOM     11  C   UNL     1       3.180  25.547  27.425  1.00  0.00     0.269 C 
ATOM     12  C   UNL     1       4.297  26.498  27.033  1.00  0.00     0.086 C 
BRANCH  11  13
ATOM     13  C   UNL     1       2.323  25.109  26.224  1.00  0.00     0.275 C 
ATOM     14  N   UNL     1       2.874  25.113  24.985  1.00  0.00    -0.365 N 
ATOM     15  O   UNL     1       1.146  24.797  26.410  1.00  0.00    -0.268 OA
ATOM     16  H   UNL     1       2.281  24.845  24.203  1.00  0.00     0.159 HD
ATOM     17  H   UNL     1       3.808  25.427  24.752  1.00  0.00     0.159 HD
ENDBRANCH  11  13
ENDBRANCH   8  11
ENDBRANCH   7   8
ENDBRANCH   1   7
BRANCH   4  18
ATOM     18  O   UNL     1       7.517  19.890  25.353  1.00  0.00    -0.489 OA
BRANCH  18  19
ATOM     19  C   UNL     1       8.202  20.089  24.113  1.00  0.00     0.265 C 
BRANCH  19  20
ATOM     20  C   UNL     1       9.362  21.053  24.225  1.00  0.00    -0.008 A 
ATOM     21  C   UNL     1      10.665  20.594  24.475  1.00  0.00     0.007 A 
ATOM     22  C   UNL     1       9.158  22.426  24.027  1.00  0.00     0.046 A 
ATOM     23  C   UNL     1      11.736  21.488  24.553  1.00  0.00     0.003 A 
ATOM     24  C   UNL     1      10.231  23.308  24.110  1.00  0.00     0.123 A 
ATOM     25  C   UNL     1      11.516  22.853  24.374  1.00  0.00     0.039 A 
ATOM     26  F   UNL     1      10.017  24.618  23.935  1.00  0.00    -0.207 F 
ENDBRANCH  19  20
ENDBRANCH  18  19
ENDBRANCH   4  18
TORSDOF 7
ENDMDL
MODEL 4
REMARK VINA RESULT:    -6.341      2.551      4.287
REMARK INTER + INTRA:          -9.973
REMARK INTER:                  -9.284
REMARK INTRA:                  -0.690
REMARK UNBOUND:                -1.037
REMARK SMILES C[C@H]([NH2+]Cc1ccc(OCc2cccc(F)c2)cc1)C(N)=O
REMARK SMILES IDX 5 1 6 2 7 3 8 4 18 5 19 6 4 7 3 8 2 11 1 12 20 13 21 14
REMARK SMILES IDX 22 15 9 18 10 19 11 20 12 21 17 22 13 23 15 24 14 25 16 26
REMARK H PARENT 3 9 3 10 21 16 21 17
ROOT
ATOM      1  C   UNL     1       9.856  24.021  27.972  1.00  0.00     0.006 A 
ATOM      2  C   UNL     1       9.602  22.731  28.459  1.00  0.00     0.013 A 
ATOM      3  C   UNL     1       8.462  22.039  28.045  1.00  0.00     0.047 A 
ATOM      4  C   UNL     1       7.555  22.613  27.153  1.00  0.00     0.119 A 
ATOM      5  C   UNL     1       7.801  23.897  26.673  1.00  0.00     0.047 A 
ATOM      6  C   UNL     1       8.941  24.599  27.082  1.00  0.00     0.013 A 
ENDROOT
BRANCH   1   7
ATOM      7  C   UNL     1      11.060  24.787  28.439  1.00  0.00     0.297 C 
BRANCH   7   8
ATOM      8  N   UNL     1      12.226  23.888  28.590  1.00  0.00    -0.333 N 
ATOM      9  H   UNL     1      12.691  24.045  29.494  1.00  0.00     0.347 HD
ATOM     10  H   UNL     1      11.891  22.909  28.674  1.00  0.00     0.347 HD
BRANCH   8  11
ATOM     11  C   UNL     1      13.238  23.884  27.462  1.00  0.00     0.269 C 
ATOM     12  C   UNL     1      14.635  23.879  28.058  1.00  0.00     0.086 C 
BRANCH  11  13
ATOM     13  C   UNL     1      12.960  22.649  26.587  1.00  0.00     0.275 C 
ATOM     14  N   UNL     1      12.754  21.450  27.186  1.00  0.00    -0.365 N 
ATOM     15  O   UNL     1      12.967  22.769  25.362  1.00  0.00    -0.268 OA
ATOM     16  H   UNL     1      12.599  20.643  26.587  1.00  0.00     0.159 HD
ATOM     17  H   UNL     1      12.808  21.266  28.180  1.00  0.00     0.159 HD
ENDBRANCH  11  13
ENDBRANCH   8  11
ENDBRANCH   7   8
ENDBRANCH   1   7
BRANCH   4  18
ATOM     18  O   UNL     1       6.498  21.812  26.830  1.00  0.00    -0.489 OA
BRANCH  18  19
ATOM     19  C   UNL     1       6.151  21.636  25.453  1.00  0.00     0.265 C 
BRANCH  19  20
ATOM     20  C   UNL     1       7.049  20.654  24.736  1.00  0.00    -0.008 A 
ATOM     21  C   UNL     1       6.516  19.558  24.038  1.00  0.00     0.007 A 
ATOM     22  C   UNL     1       8.437  20.855  24.715  1.00  0.00     0.046 A 
ATOM     23  C   UNL     1       7.352  18.668  23.358  1.00  0.00     0.003 A 
ATOM     24  C   UNL     1       9.260  19.962  24.036  1.00  0.00     0.123 A 
ATOM     25  C   UNL     1       8.731  18.870  23.360  1.00  0.00     0.039 A 
ATOM     26  F   UNL     1      10.584  20.158  24.039  1.00  0.00    -0.207 F 
ENDBRANCH  19  20
ENDBRANCH  18  19
ENDBRANCH   4  18
TORSDOF 7
ENDMDL
MODEL 5
REMARK VINA RESULT:    -6.302      2.415      3.235
REMARK INTER + INTRA:          -9.918
REMARK INTER:                  -9.145
REMARK INTRA:                  -0.773
REMARK UNBOUND:                -1.037
REMARK SMILES C[C@H]([NH2+]Cc1ccc(OCc2cccc(F)c2)cc1)C(N)=O
REMARK SMILES IDX 5 1 6 2 7 3 8 4 18 5 19 6 4 7 3 8 2 11 1 12 20 13 21 14
REMARK SMILES IDX 22 15 9 18 10 19 11 20 12 21 17 22 13 23 15 24 14 25 16 26
REMARK H PARENT 3 9 3 10 21 16 21 17
ROOT
ATOM      1  C   UNL     1      13.413  23.028  25.655  1.00  0.00     0.006 A 
ATOM      2  C   UNL     1      13.183  22.909  24.278  1.00  0.00     0.013 A 
ATOM      3  C   UNL     1      12.182  22.057  23.806  1.00  0.00     0.047 A 
ATOM      4  C   UNL     1      11.402  21.306  24.687  1.00  0.00     0.119 A 
ATOM      5  C   UNL     1      11.632  21.416  26.056  1.00  0.00     0.047 A 
ATOM      6  C   UNL     1      12.633  22.268  26.538  1.00  0.00     0.013 A 
ENDROOT
BRANCH   1   7
ATOM      7  C   UNL     1      14.510  23.914  26.170  1.00  0.00     0.297 C 
BRANCH   7   8
ATOM      8  N   UNL     1      15.657  23.924  25.235  1.00  0.00    -0.333 N 
ATOM      9  H   UNL     1      15.901  22.967  24.949  1.00  0.00     0.347 HD
ATOM     10  H   UNL     1      15.362  24.360  24.341  1.00  0.00     0.347 HD
BRANCH   8  11
ATOM     11  C   UNL     1      16.894  24.681  25.678  1.00  0.00     0.269 C 
ATOM     12  C   UNL     1      16.505  25.651  26.780  1.00  0.00     0.086 C 
BRANCH  11  13
ATOM     13  C   UNL     1      17.937  23.647  26.137  1.00  0.00     0.275 C 
ATOM     14  N   UNL     1      17.591  22.337  26.184  1.00  0.00    -0.365 N 
ATOM     15  O   UNL     1      19.053  24.036  26.485  1.00  0.00    -0.268 OA
ATOM     16  H   UNL     1      18.289  21.675  26.516  1.00  0.00     0.159 HD
ATOM     17  H   UNL     1      16.674  21.958  25.984  1.00  0.00     0.159 HD
ENDBRANCH  11  13
ENDBRANCH   8  11
ENDBRANCH   7   8
ENDBRANCH   1   7
BRANCH   4  18
ATOM     18  O   UNL     1      10.455  20.531  24.081  1.00  0.00    -0.489 OA
BRANCH  18  19
ATOM     19  C   UNL     1       9.213  21.124  23.691  1.00  0.00     0.265 C 
BRANCH  19  20
ATOM     20  C   UNL     1       8.234  21.254  24.836  1.00  0.00    -0.008 A 
ATOM     21  C   UNL     1       7.618  20.123  25.397  1.00  0.00     0.007 A 
ATOM     22  C   UNL     1       7.964  22.512  25.392  1.00  0.00     0.046 A 
ATOM     23  C   UNL     1       6.733  20.249  26.471  1.00  0.00     0.003 A 
ATOM     24  C   UNL     1       7.079  22.627  26.460  1.00  0.00     0.123 A 
ATOM     25  C   UNL     1       6.459  21.508  27.002  1.00  0.00     0.039 A 
ATOM     26  F   UNL     1       6.819  23.837  26.969  1.00  0.00    -0.207 F 
ENDBRANCH  19  20
ENDBRANCH  18  19
ENDBRANCH   4  18
TORSDOF 7
ENDMDL
MODEL 6
REMARK VINA RESULT:    -6.301      5.683      9.285
REMARK INTER + INTRA:          -9.916
REMARK INTER:                  -9.109
REMARK INTRA:                  -0.807
REMARK UNBOUND:                -1.037
REMARK SMILES C[C@H]([NH2+]Cc1ccc(OCc2cccc(F)c2)cc1)C(N)=O
REMARK SMILES IDX 5 1 6 2 7 3 8 4 18 5 19 6 4 7 3 8 2 11 1 12 20 13 21 14
REMARK SMILES IDX 22 15 9 18 10 19 11 20 12 21 17 22 13 23 15 24 14 25 16 26
REMARK H PARENT 3 9 3 10 21 16 21 17
ROOT
ATOM      1  C   UNL     1      16.882  25.231  23.832  1.00  0.00     0.006 A 
ATOM      2  C   UNL     1      18.055  24.678  23.302  1.00  0.00     0.013 A 
ATOM      3  C   UNL     1      18.326  24.787  21.936  1.00  0.00     0.047 A 
ATOM      4  C   UNL     1      17.437  25.435  21.075  1.00  0.00     0.119 A 
ATOM      5  C   UNL     1      16.267  25.980  21.598  1.00  0.00     0.047 A 
ATOM      6  C   UNL     1      15.988  25.876  22.966  1.00  0.00     0.013 A 
ENDROOT
BRANCH   1   7
ATOM      7  C   UNL     1      16.565  25.088  25.293  1.00  0.00     0.297 C 
BRANCH   7   8
ATOM      8  N   UNL     1      15.493  24.089  25.500  1.00  0.00    -0.333 N 
ATOM      9  H   UNL     1      15.238  23.640  24.612  1.00  0.00     0.347 HD
ATOM     10  H   UNL     1      15.870  23.297  26.055  1.00  0.00     0.347 HD
BRANCH   8  11
ATOM     11  C   UNL     1      14.254  24.559  26.237  1.00  0.00     0.269 C 
ATOM     12  C   UNL     1      13.151  24.815  25.225  1.00  0.00     0.086 C 
BRANCH  11  13
ATOM     13  C   UNL     1      13.879  23.474  27.263  1.00  0.00     0.275 C 
ATOM     14  N   UNL     1      14.722  23.224  28.295  1.00  0.00    -0.365 N 
ATOM     15  O   UNL     1      12.840  22.834  27.104  1.00  0.00    -0.268 OA
ATOM     16  H   UNL     1      14.467  22.484  28.945  1.00  0.00     0.159 HD
ATOM     17  H   UNL     1      15.625  23.659  28.444  1.00  0.00     0.159 HD
ENDBRANCH  11  13
ENDBRANCH   8  11
ENDBRANCH   7   8
ENDBRANCH   1   7
BRANCH   4  18
ATOM     18  O   UNL     1      17.843  25.476  19.773  1.00  0.00    -0.489 OA
BRANCH  18  19
ATOM     19  C   UNL     1      18.016  24.249  19.057  1.00  0.00     0.265 C 
BRANCH  19  20
ATOM     20  C   UNL     1      16.716  23.519  18.809  1.00  0.00    -0.008 A 
ATOM     21  C   UNL     1      16.095  23.551  17.550  1.00  0.00     0.007 A 
ATOM     22  C   UNL     1      16.135  22.750  19.827  1.00  0.00     0.046 A 
ATOM     23  C   UNL     1      14.906  22.854  17.321  1.00  0.00     0.003 A 
ATOM     24  C   UNL     1      14.949  22.061  19.589  1.00  0.00     0.123 A 
ATOM     25  C   UNL     1      14.328  22.108  18.348  1.00  0.00     0.039 A 
ATOM     26  F   UNL     1      14.398  21.345  20.576  1.00  0.00    -0.207 F 
ENDBRANCH  19  20
ENDBRANCH  18  19
ENDBRANCH   4  18
TORSDOF 7
ENDMDL
MODEL 7
REMARK VINA RESULT:    -6.234      2.507      3.465
REMARK INTER + INTRA:          -9.822
REMARK INTER:                  -8.819
REMARK INTRA:                  -1.003
REMARK UNBOUND:                -1.037
REMARK SMILES C[C@H]([NH2+]Cc1ccc(OCc2cccc(F)c2)cc1)C(N)=O
REMARK SMILES IDX 5 1 6 2 7 3 8 4 18 5 19 6 4 7 3 8 2 11 1 12 20 13 21 14
REMARK SMILES IDX 22 15 9 18 10 19 11 20 12 21 17 22 13 23 15 24 14 25 16 26
REMARK H PARENT 3 9 3 10 21 16 21 17
ROOT
ATOM      1  C   UNL     1      12.358  23.457  25.600  1.00  0.00     0.006 A 
ATOM      2  C   UNL     1      11.408  24.437  25.284  1.00  0.00     0.013 A 
ATOM      3  C   UNL     1      10.150  24.417  25.892  1.00  0.00     0.047 A 
ATOM      4  C   UNL     1       9.814  23.425  26.815  1.00  0.00     0.119 A 
ATOM      5  C   UNL     1      10.754  22.445  27.127  1.00  0.00     0.047 A 
ATOM      6  C   UNL     1      12.016  22.458  26.522  1.00  0.00     0.013 A 
ENDROOT
BRANCH   1   7
ATOM      7  C   UNL     1      13.699  23.450  24.925  1.00  0.00     0.297 C 
BRANCH   7   8
ATOM      8  N   UNL     1      14.738  22.910  25.829  1.00  0.00    -0.333 N 
ATOM      9  H   UNL     1      14.309  22.437  26.634  1.00  0.00     0.347 HD
ATOM     10  H   UNL     1      15.236  22.136  25.350  1.00  0.00     0.347 HD
BRANCH   8  11
ATOM     11  C   UNL     1      15.814  23.875  26.288  1.00  0.00     0.269 C 
ATOM     12  C   UNL     1      15.613  25.204  25.580  1.00  0.00     0.086 C 
BRANCH  11  13
ATOM     13  C   UNL     1      15.714  23.996  27.819  1.00  0.00     0.275 C 
ATOM     14  N   UNL     1      14.872  23.173  28.491  1.00  0.00    -0.365 N 
ATOM     15  O   UNL     1      16.374  24.860  28.395  1.00  0.00    -0.268 OA
ATOM     16  H   UNL     1      14.802  23.289  29.499  1.00  0.00     0.159 HD
ATOM     17  H   UNL     1      14.247  22.493  28.075  1.00  0.00     0.159 HD
ENDBRANCH  11  13
ENDBRANCH   8  11
ENDBRANCH   7   8
ENDBRANCH   1   7
BRANCH   4  18
ATOM     18  O   UNL     1       8.558  23.543  27.337  1.00  0.00    -0.489 OA
BRANCH  18  19
ATOM     19  C   UNL     1       7.426  23.360  26.481  1.00  0.00     0.265 C 
BRANCH  19  20
ATOM     20  C   UNL     1       7.450  22.042  25.741  1.00  0.00    -0.008 A 
ATOM     21  C   UNL     1       7.030  20.854  26.361  1.00  0.00     0.007 A 
ATOM     22  C   UNL     1       7.847  21.996  24.397  1.00  0.00     0.046 A 
ATOM     23  C   UNL     1       7.032  19.643  25.662  1.00  0.00     0.003 A 
ATOM     24  C   UNL     1       7.848  20.785  23.712  1.00  0.00     0.123 A 
ATOM     25  C   UNL     1       7.447  19.609  24.332  1.00  0.00     0.039 A 
ATOM     26  F   UNL     1       8.245  20.755  22.434  1.00  0.00    -0.207 F 
ENDBRANCH  19  20
ENDBRANCH  18  19
ENDBRANCH   4  18
TORSDOF 7
ENDMDL
MODEL 8
REMARK VINA RESULT:    -6.143      3.039      5.412
REMARK INTER + INTRA:          -9.694
REMARK INTER:                  -8.648
REMARK INTRA:                  -1.046
REMARK UNBOUND:                -1.037
REMARK SMILES C[C@H]([NH2+]Cc1ccc(OCc2cccc(F)c2)cc1)C(N)=O
REMARK SMILES IDX 5 1 6 2 7 3 8 4 18 5 19 6 4 7 3 8 2 11 1 12 20 13 21 14
REMARK SMILES IDX 22 15 9 18 10 19 11 20 12 21 17 22 13 23 15 24 14 25 16 26
REMARK H PARENT 3 9 3 10 21 16 21 17
ROOT
ATOM      1  C   UNL     1       9.538  21.630  23.913  1.00  0.00     0.006 A 
ATOM      2  C   UNL     1       9.477  23.022  24.055  1.00  0.00     0.013 A 
ATOM      3  C   UNL     1      10.418  23.688  24.844  1.00  0.00     0.047 A 
ATOM      4  C   UNL     1      11.426  22.986  25.508  1.00  0.00     0.119 A 
ATOM      5  C   UNL     1      11.485  21.601  25.375  1.00  0.00     0.047 A 
ATOM      6  C   UNL     1      10.546  20.925  24.586  1.00  0.00     0.013 A 
ENDROOT
BRANCH   1   7
ATOM      7  C   UNL     1       8.509  20.902  23.097  1.00  0.00     0.297 C 
BRANCH   7   8
ATOM      8  N   UNL     1       7.145  21.357  23.447  1.00  0.00    -0.333 N 
ATOM      9  H   UNL     1       7.162  22.327  23.788  1.00  0.00     0.347 HD
ATOM     10  H   UNL     1       6.579  21.430  22.581  1.00  0.00     0.347 HD
BRANCH   8  11
ATOM     11  C   UNL     1       6.351  20.474  24.389  1.00  0.00     0.269 C 
ATOM     12  C   UNL     1       6.931  19.071  24.350  1.00  0.00     0.086 C 
BRANCH  11  13
ATOM     13  C   UNL     1       6.415  21.105  25.791  1.00  0.00     0.275 C 
ATOM     14  N   UNL     1       6.648  20.308  26.863  1.00  0.00    -0.365 N 
ATOM     15  O   UNL     1       6.218  22.315  25.912  1.00  0.00    -0.268 OA
ATOM     16  H   UNL     1       6.659  20.744  27.782  1.00  0.00     0.159 HD
ATOM     17  H   UNL     1       6.744  19.301  26.843  1.00  0.00     0.159 HD
ENDBRANCH  11  13
ENDBRANCH   8  11
ENDBRANCH   7   8
ENDBRANCH   1   7
BRANCH   4  18
ATOM     18  O   UNL     1      12.280  23.771  26.228  1.00  0.00    -0.489 OA
BRANCH  18  19
ATOM     19  C   UNL     1      12.118  23.861  27.646  1.00  0.00     0.265 C 
BRANCH  19  20
ATOM     20  C   UNL     1      10.670  23.918  28.075  1.00  0.00    -0.008 A 
ATOM     21  C   UNL     1       9.951  25.124  28.043  1.00  0.00     0.007 A 
ATOM     22  C   UNL     1      10.004  22.748  28.466  1.00  0.00     0.046 A 
ATOM     23  C   UNL     1       8.605  25.164  28.418  1.00  0.00     0.003 A 
ATOM     24  C   UNL     1       8.665  22.800  28.840  1.00  0.00     0.123 A 
ATOM     25  C   UNL     1       7.960  23.996  28.822  1.00  0.00     0.039 A 
ATOM     26  F   UNL     1       8.048  21.676  29.226  1.00  0.00    -0.207 F 
ENDBRANCH  19  20
ENDBRANCH  18  19
ENDBRANCH   4  18
TORSDOF 7
ENDMDL
MODEL 9
REMARK VINA RESULT:    -6.069      3.395      4.816
REMARK INTER + INTRA:          -9.590
REMARK INTER:                  -8.846
REMARK INTRA:                  -0.743
REMARK UNBOUND:                -1.037
REMARK SMILES C[C@H]([NH2+]Cc1ccc(OCc2cccc(F)c2)cc1)C(N)=O
REMARK SMILES IDX 5 1 6 2 7 3 8 4 18 5 19 6 4 7 3 8 2 11 1 12 20 13 21 14
REMARK SMILES IDX 22 15 9 18 10 19 11 20 12 21 17 22 13 23 15 24 14 25 16 26
REMARK H PARENT 3 9 3 10 21 16 21 17
ROOT
ATOM      1  C   UNL     1      13.779  24.354  24.977  1.00  0.00     0.006 A 
ATOM      2  C   UNL     1      12.809  25.317  25.281  1.00  0.00     0.013 A 
ATOM      3  C   UNL     1      11.454  25.031  25.096  1.00  0.00     0.047 A 
ATOM      4  C   UNL     1      11.042  23.792  24.601  1.00  0.00     0.119 A 
ATOM      5  C   UNL     1      12.005  22.834  24.291  1.00  0.00     0.047 A 
ATOM      6  C   UNL     1      13.365  23.113  24.474  1.00  0.00     0.013 A 
ENDROOT
BRANCH   1   7
ATOM      7  C   UNL     1      15.239  24.666  25.140  1.00  0.00     0.297 C 
BRANCH   7   8
ATOM      8  N   UNL     1      15.917  24.696  23.825  1.00  0.00    -0.333 N 
ATOM      9  H   UNL     1      16.927  24.543  23.933  1.00  0.00     0.347 HD
ATOM     10  H   UNL     1      15.620  23.869  23.271  1.00  0.00     0.347 HD
BRANCH   8  11
ATOM     11  C   UNL     1      15.651  25.901  22.945  1.00  0.00     0.269 C 
ATOM     12  C   UNL     1      16.348  27.109  23.546  1.00  0.00     0.086 C 
BRANCH  11  13
ATOM     13  C   UNL     1      16.153  25.568  21.529  1.00  0.00     0.275 C 
ATOM     14  N   UNL     1      16.208  26.555  20.600  1.00  0.00    -0.365 N 
ATOM     15  O   UNL     1      16.460  24.406  21.260  1.00  0.00    -0.268 OA
ATOM     16  H   UNL     1      16.517  26.306  19.664  1.00  0.00     0.159 HD
ATOM     17  H   UNL     1      15.902  27.511  20.731  1.00  0.00     0.159 HD
ENDBRANCH  11  13
ENDBRANCH   8  11
ENDBRANCH   7   8
ENDBRANCH   1   7
BRANCH   4  18
ATOM     18  O   UNL     1       9.689  23.652  24.487  1.00  0.00    -0.489 OA
BRANCH  18  19
ATOM     19  C   UNL     1       8.957  23.050  25.559  1.00  0.00     0.265 C 
BRANCH  19  20
ATOM     20  C   UNL     1       8.351  21.716  25.186  1.00  0.00    -0.008 A 
ATOM     21  C   UNL     1       7.513  21.026  26.077  1.00  0.00     0.007 A 
ATOM     22  C   UNL     1       8.577  21.171  23.914  1.00  0.00     0.046 A 
ATOM     23  C   UNL     1       6.936  19.805  25.716  1.00  0.00     0.003 A 
ATOM     24  C   UNL     1       8.000  19.953  23.566  1.00  0.00     0.123 A 
ATOM     25  C   UNL     1       7.184  19.265  24.455  1.00  0.00     0.039 A 
ATOM     26  F   UNL     1       8.238  19.438  22.354  1.00  0.00    -0.207 F 
ENDBRANCH  19  20
ENDBRANCH  18  19
ENDBRANCH   4  18
TORSDOF 7
ENDMDL
