MODEL 1
REMARK VINA RESULT:    -8.554      0.000      0.000
REMARK INTER + INTRA:         -19.625
REMARK INTER:                 -16.056
REMARK INTRA:                  -3.569
REMARK UNBOUND:                -3.569
REMARK SMILES C[C@@H]1O[C@@H](OC[C@H]2O[C@@H](Oc3ccc(-c4oc5cc(O)cc(O)c5c(=O)c4O)cc3)[C@H](O)[C@@H](O)[C@@H]2O)[C@H](O[C@@H]2O[C@H](CO)[C@@H](O)[C@H](O)[C@H]2O)[C@H](O)[C@H]1O
REMARK SMILES IDX 5 1 4 2 2 3 3 4 52 5 50 6 37 7 1 8 53 9 51 11 38 13 39 14
REMARK SMILES IDX 40 15 48 16 41 17 46 18 44 19 49 20 42 22 43 23 47 25 45 27
REMARK SMILES IDX 6 29 7 30 8 31 35 32 9 33 33 34 31 35 36 36 10 38 11 39
REMARK SMILES IDX 12 40 30 41 13 42 29 43 14 44 15 45 16 46 27 47 17 48 25 49
REMARK SMILES IDX 18 50 24 51 26 52 19 53 22 54 21 55 28 56 20 58 23 60 34 62
REMARK SMILES IDX 32 64
REMARK H PARENT 53 10 51 12 49 21 43 24 47 26 45 28 36 37 28 57 20 59 23 61
REMARK H PARENT 34 63 32 65
ROOT
ATOM      1  O   UNL     1      17.284  21.775  12.988  1.00  0.00    -0.347 OA
ENDROOT
BRANCH   1   2
ATOM      2  C   UNL     1      16.200  21.184  13.714  1.00  0.00     0.282 C 
ATOM      3  C   UNL     1      14.576  22.911  13.870  1.00  0.00     0.150 C 
ATOM      4  O   UNL     1      14.968  21.710  13.208  1.00  0.00    -0.344 OA
ATOM      5  C   UNL     1      14.133  22.579  15.306  1.00  0.00     0.174 C 
ATOM      6  C   UNL     1      15.087  21.573  15.974  1.00  0.00     0.180 C 
ATOM      7  C   UNL     1      16.422  21.449  15.228  1.00  0.00     0.209 C 
ATOM      8  C   UNL     1      13.439  23.542  13.073  1.00  0.00     0.041 C 
BRANCH   5   9
ATOM      9  O   UNL     1      14.084  23.788  16.074  1.00  0.00    -0.388 OA
ATOM     10  H   UNL     1      13.142  24.008  16.190  1.00  0.00     0.211 HD
ENDBRANCH   5   9
BRANCH   6  11
ATOM     11  O   UNL     1      14.448  20.288  16.072  1.00  0.00    -0.387 OA
ATOM     12  H   UNL     1      13.742  20.397  16.745  1.00  0.00     0.211 HD
ENDBRANCH   6  11
BRANCH   7  13
ATOM     13  O   UNL     1      17.144  20.354  15.836  1.00  0.00    -0.338 OA
BRANCH  13  14
ATOM     14  C   UNL     1      18.286  20.774  16.587  1.00  0.00     0.282 C 
ATOM     15  O   UNL     1      18.081  22.062  17.157  1.00  0.00    -0.341 OA
ATOM     16  C   UNL     1      19.477  20.814  15.608  1.00  0.00     0.202 C 
ATOM     17  C   UNL     1      19.205  22.499  17.931  1.00  0.00     0.178 C 
ATOM     18  C   UNL     1      20.721  21.331  16.324  1.00  0.00     0.179 C 
ATOM     19  C   UNL     1      20.432  22.663  17.019  1.00  0.00     0.177 C 
BRANCH  16  20
ATOM     20  O   UNL     1      19.769  19.518  15.063  1.00  0.00    -0.385 OA
ATOM     21  H   UNL     1      18.989  18.963  15.279  1.00  0.00     0.211 HD
ENDBRANCH  16  20
BRANCH  17  22
ATOM     22  C   UNL     1      18.862  23.815  18.642  1.00  0.00     0.191 C 
BRANCH  22  23
ATOM     23  O   UNL     1      19.195  24.948  17.842  1.00  0.00    -0.394 OA
ATOM     24  H   UNL     1      18.573  25.663  18.096  1.00  0.00     0.210 HD
ENDBRANCH  22  23
ENDBRANCH  17  22
BRANCH  18  25
ATOM     25  O   UNL     1      21.796  21.514  15.387  1.00  0.00    -0.387 OA
ATOM     26  H   UNL     1      22.565  21.067  15.797  1.00  0.00     0.211 HD
ENDBRANCH  18  25
BRANCH  19  27
ATOM     27  O   UNL     1      21.586  23.074  17.762  1.00  0.00    -0.387 OA
ATOM     28  H   UNL     1      22.321  23.056  17.113  1.00  0.00     0.211 HD
ENDBRANCH  19  27
ENDBRANCH  13  14
ENDBRANCH   7  13
ENDBRANCH   1   2
BRANCH   1  29
ATOM     29  C   UNL     1      17.785  22.974  13.592  1.00  0.00     0.198 C 
BRANCH  29  30
ATOM     30  C   UNL     1      19.120  23.389  12.950  1.00  0.00     0.180 C 
ATOM     31  O   UNL     1      20.069  23.701  13.973  1.00  0.00    -0.332 OA
ATOM     32  C   UNL     1      19.712  22.249  12.107  1.00  0.00     0.177 C 
ATOM     33  C   UNL     1      21.200  24.428  13.472  1.00  0.00     0.339 C 
ATOM     34  C   UNL     1      21.211  22.495  11.813  1.00  0.00     0.180 C 
ATOM     35  C   UNL     1      21.639  23.953  12.059  1.00  0.00     0.214 C 
BRANCH  32  36
ATOM     36  O   UNL     1      18.977  22.116  10.888  1.00  0.00    -0.387 OA
ATOM     37  H   UNL     1      19.328  22.778  10.265  1.00  0.00     0.211 HD
ENDBRANCH  32  36
BRANCH  33  38
ATOM     38  O   UNL     1      22.320  24.223  14.357  1.00  0.00    -0.462 OA
BRANCH  38  39
ATOM     39  C   UNL     1      22.603  25.374  15.041  1.00  0.00     0.123 A 
ATOM     40  C   UNL     1      23.654  25.404  15.955  1.00  0.00     0.047 A 
ATOM     41  C   UNL     1      21.859  26.521  14.777  1.00  0.00     0.047 A 
ATOM     42  C   UNL     1      23.921  26.576  16.661  1.00  0.00     0.016 A 
ATOM     43  C   UNL     1      22.129  27.695  15.484  1.00  0.00     0.016 A 
ATOM     44  C   UNL     1      23.148  27.726  16.448  1.00  0.00     0.021 A 
BRANCH  44  45
ATOM     45  C   UNL     1      23.410  28.959  17.207  1.00  0.00     0.180 A 
ATOM     46  O   UNL     1      22.424  29.250  18.138  1.00  0.00    -0.452 OA
ATOM     47  C   UNL     1      24.511  29.705  17.008  1.00  0.00     0.208 A 
ATOM     48  C   UNL     1      22.551  30.386  18.899  1.00  0.00     0.146 A 
ATOM     49  C   UNL     1      24.681  30.936  17.812  1.00  0.00     0.238 A 
ATOM     50  C   UNL     1      21.531  30.651  19.814  1.00  0.00     0.094 A 
ATOM     51  C   UNL     1      23.635  31.256  18.786  1.00  0.00     0.111 A 
ATOM     52  O   UNL     1      25.668  31.650  17.650  1.00  0.00    -0.285 OA
ATOM     53  C   UNL     1      21.611  31.790  20.610  1.00  0.00     0.123 A 
ATOM     54  C   UNL     1      23.705  32.396  19.592  1.00  0.00     0.134 A 
ATOM     55  C   UNL     1      22.691  32.664  20.507  1.00  0.00     0.093 A 
BRANCH  47  56
ATOM     56  O   UNL     1      25.516  29.390  16.106  1.00  0.00    -0.502 OA
ATOM     57  H   UNL     1      25.331  28.456  15.852  1.00  0.00     0.293 HD
ENDBRANCH  47  56
BRANCH  53  58
ATOM     58  O   UNL     1      20.639  32.090  21.518  1.00  0.00    -0.508 OA
ATOM     59  H   UNL     1      20.533  31.347  22.135  1.00  0.00     0.293 HD
ENDBRANCH  53  58
BRANCH  54  60
ATOM     60  O   UNL     1      24.740  33.289  19.534  1.00  0.00    -0.507 OA
ATOM     61  H   UNL     1      24.372  34.190  19.409  1.00  0.00     0.293 HD
ENDBRANCH  54  60
ENDBRANCH  44  45
ENDBRANCH  38  39
ENDBRANCH  33  38
BRANCH  34  62
ATOM     62  O   UNL     1      22.013  21.599  12.595  1.00  0.00    -0.387 OA
ATOM     63  H   UNL     1      21.434  20.886  12.932  1.00  0.00     0.211 HD
ENDBRANCH  34  62
BRANCH  35  64
ATOM     64  O   UNL     1      21.062  24.813  11.062  1.00  0.00    -0.384 OA
ATOM     65  H   UNL     1      20.307  24.344  10.663  1.00  0.00     0.211 HD
ENDBRANCH  35  64
ENDBRANCH  29  30
ENDBRANCH   1  29
TORSDOF 21
ENDMDL
MODEL 2
REMARK VINA RESULT:    -8.130      1.922      5.152
REMARK INTER + INTRA:         -18.829
REMARK INTER:                 -15.505
REMARK INTRA:                  -3.323
REMARK UNBOUND:                -3.569
REMARK SMILES C[C@@H]1O[C@@H](OC[C@H]2O[C@@H](Oc3ccc(-c4oc5cc(O)cc(O)c5c(=O)c4O)cc3)[C@H](O)[C@@H](O)[C@@H]2O)[C@H](O[C@@H]2O[C@H](CO)[C@@H](O)[C@H](O)[C@H]2O)[C@H](O)[C@H]1O
REMARK SMILES IDX 5 1 4 2 2 3 3 4 52 5 50 6 37 7 1 8 53 9 51 11 38 13 39 14
REMARK SMILES IDX 40 15 48 16 41 17 46 18 44 19 49 20 42 22 43 23 47 25 45 27
REMARK SMILES IDX 6 29 7 30 8 31 35 32 9 33 33 34 31 35 36 36 10 38 11 39
REMARK SMILES IDX 12 40 30 41 13 42 29 43 14 44 15 45 16 46 27 47 17 48 25 49
REMARK SMILES IDX 18 50 24 51 26 52 19 53 22 54 21 55 28 56 20 58 23 60 34 62
REMARK SMILES IDX 32 64
REMARK H PARENT 53 10 51 12 49 21 43 24 47 26 45 28 36 37 28 57 20 59 23 61
REMARK H PARENT 34 63 32 65
ROOT
ATOM      1  O   UNL     1      21.183  21.286  12.678  1.00  0.00    -0.347 OA
ENDROOT
BRANCH   1   2
ATOM      2  C   UNL     1      20.510  20.682  11.567  1.00  0.00     0.282 C 
ATOM      3  C   UNL     1      20.881  22.179   9.760  1.00  0.00     0.150 C 
ATOM      4  O   UNL     1      21.259  20.949  10.375  1.00  0.00    -0.344 OA
ATOM      5  C   UNL     1      19.479  22.031   9.144  1.00  0.00     0.174 C 
ATOM      6  C   UNL     1      18.521  21.283  10.089  1.00  0.00     0.180 C 
ATOM      7  C   UNL     1      19.052  21.218  11.526  1.00  0.00     0.209 C 
ATOM      8  C   UNL     1      21.920  22.514   8.695  1.00  0.00     0.041 C 
BRANCH   5   9
ATOM      9  O   UNL     1      18.955  23.331   8.848  1.00  0.00    -0.388 OA
ATOM     10  H   UNL     1      17.998  23.221   8.700  1.00  0.00     0.211 HD
ENDBRANCH   5   9
BRANCH   6  11
ATOM     11  O   UNL     1      18.277  19.958   9.586  1.00  0.00    -0.387 OA
ATOM     12  H   UNL     1      17.306  19.827   9.651  1.00  0.00     0.211 HD
ENDBRANCH   6  11
BRANCH   7  13
ATOM     13  O   UNL     1      18.168  20.343  12.263  1.00  0.00    -0.338 OA
BRANCH  13  14
ATOM     14  C   UNL     1      16.967  20.986  12.700  1.00  0.00     0.282 C 
ATOM     15  O   UNL     1      17.089  21.443  14.043  1.00  0.00    -0.341 OA
ATOM     16  C   UNL     1      15.837  19.944  12.596  1.00  0.00     0.202 C 
ATOM     17  C   UNL     1      15.904  22.109  14.499  1.00  0.00     0.178 C 
ATOM     18  C   UNL     1      14.532  20.538  13.122  1.00  0.00     0.179 C 
ATOM     19  C   UNL     1      14.727  21.119  14.523  1.00  0.00     0.177 C 
BRANCH  16  20
ATOM     20  O   UNL     1      15.628  19.509  11.243  1.00  0.00    -0.385 OA
ATOM     21  H   UNL     1      15.611  18.528  11.285  1.00  0.00     0.211 HD
ENDBRANCH  16  20
BRANCH  17  22
ATOM     22  C   UNL     1      16.153  22.709  15.889  1.00  0.00     0.191 C 
BRANCH  22  23
ATOM     23  O   UNL     1      17.370  23.449  15.934  1.00  0.00    -0.394 OA
ATOM     24  H   UNL     1      17.848  23.253  15.100  1.00  0.00     0.210 HD
ENDBRANCH  22  23
ENDBRANCH  17  22
BRANCH  18  25
ATOM     25  O   UNL     1      13.509  19.530  13.169  1.00  0.00    -0.387 OA
ATOM     26  H   UNL     1      12.678  20.024  13.324  1.00  0.00     0.211 HD
ENDBRANCH  18  25
BRANCH  19  27
ATOM     27  O   UNL     1      13.516  21.754  14.950  1.00  0.00    -0.387 OA
ATOM     28  H   UNL     1      13.390  22.498  14.323  1.00  0.00     0.211 HD
ENDBRANCH  19  27
ENDBRANCH  13  14
ENDBRANCH   7  13
ENDBRANCH   1   2
BRANCH   1  29
ATOM     29  C   UNL     1      20.412  22.309  13.320  1.00  0.00     0.198 C 
BRANCH  29  30
ATOM     30  C   UNL     1      20.786  22.416  14.808  1.00  0.00     0.180 C 
ATOM     31  O   UNL     1      20.200  23.595  15.367  1.00  0.00    -0.332 OA
ATOM     32  C   UNL     1      20.253  21.216  15.605  1.00  0.00     0.177 C 
ATOM     33  C   UNL     1      20.783  23.954  16.629  1.00  0.00     0.339 C 
ATOM     34  C   UNL     1      20.252  21.512  17.124  1.00  0.00     0.180 C 
ATOM     35  C   UNL     1      21.135  22.716  17.500  1.00  0.00     0.214 C 
BRANCH  32  36
ATOM     36  O   UNL     1      21.040  20.056  15.321  1.00  0.00    -0.387 OA
ATOM     37  H   UNL     1      21.214  20.055  14.362  1.00  0.00     0.211 HD
ENDBRANCH  32  36
BRANCH  33  38
ATOM     38  O   UNL     1      19.836  24.745  17.375  1.00  0.00    -0.462 OA
BRANCH  38  39
ATOM     39  C   UNL     1      20.403  25.931  17.758  1.00  0.00     0.123 A 
ATOM     40  C   UNL     1      20.979  26.055  19.019  1.00  0.00     0.047 A 
ATOM     41  C   UNL     1      20.435  26.990  16.855  1.00  0.00     0.047 A 
ATOM     42  C   UNL     1      21.536  27.273  19.407  1.00  0.00     0.016 A 
ATOM     43  C   UNL     1      20.994  28.209  17.244  1.00  0.00     0.016 A 
ATOM     44  C   UNL     1      21.530  28.368  18.531  1.00  0.00     0.021 A 
BRANCH  44  45
ATOM     45  C   UNL     1      22.094  29.663  18.942  1.00  0.00     0.180 A 
ATOM     46  O   UNL     1      23.325  29.933  18.361  1.00  0.00    -0.452 OA
ATOM     47  C   UNL     1      21.454  30.491  19.786  1.00  0.00     0.208 A 
ATOM     48  C   UNL     1      23.959  31.109  18.679  1.00  0.00     0.146 A 
ATOM     49  C   UNL     1      22.108  31.768  20.150  1.00  0.00     0.238 A 
ATOM     50  C   UNL     1      25.201  31.337  18.085  1.00  0.00     0.094 A 
ATOM     51  C   UNL     1      23.415  32.051  19.551  1.00  0.00     0.111 A 
ATOM     52  O   UNL     1      21.560  32.545  20.928  1.00  0.00    -0.285 OA
ATOM     53  C   UNL     1      25.886  32.514  18.373  1.00  0.00     0.123 A 
ATOM     54  C   UNL     1      24.112  33.230  19.831  1.00  0.00     0.134 A 
ATOM     55  C   UNL     1      25.350  33.463  19.242  1.00  0.00     0.093 A 
BRANCH  47  56
ATOM     56  O   UNL     1      20.205  30.237  20.333  1.00  0.00    -0.502 OA
ATOM     57  H   UNL     1      20.295  30.499  21.277  1.00  0.00     0.293 HD
ENDBRANCH  47  56
BRANCH  53  58
ATOM     58  O   UNL     1      27.102  32.781  17.817  1.00  0.00    -0.508 OA
ATOM     59  H   UNL     1      27.378  32.029  17.268  1.00  0.00     0.293 HD
ENDBRANCH  53  58
BRANCH  54  60
ATOM     60  O   UNL     1      23.635  34.196  20.676  1.00  0.00    -0.507 OA
ATOM     61  H   UNL     1      24.391  34.592  21.161  1.00  0.00     0.293 HD
ENDBRANCH  54  60
ENDBRANCH  44  45
ENDBRANCH  38  39
ENDBRANCH  33  38
BRANCH  34  62
ATOM     62  O   UNL     1      18.908  21.715  17.580  1.00  0.00    -0.387 OA
ATOM     63  H   UNL     1      18.299  21.366  16.898  1.00  0.00     0.211 HD
ENDBRANCH  34  62
BRANCH  35  64
ATOM     64  O   UNL     1      22.523  22.386  17.327  1.00  0.00    -0.384 OA
ATOM     65  H   UNL     1      22.644  21.455  17.589  1.00  0.00     0.211 HD
ENDBRANCH  35  64
ENDBRANCH  29  30
ENDBRANCH   1  29
TORSDOF 21
ENDMDL
MODEL 3
REMARK VINA RESULT:    -7.980      2.387      5.643
REMARK INTER + INTRA:         -18.547
REMARK INTER:                 -16.519
REMARK INTRA:                  -2.028
REMARK UNBOUND:                -3.569
REMARK SMILES C[C@@H]1O[C@@H](OC[C@H]2O[C@@H](Oc3ccc(-c4oc5cc(O)cc(O)c5c(=O)c4O)cc3)[C@H](O)[C@@H](O)[C@@H]2O)[C@H](O[C@@H]2O[C@H](CO)[C@@H](O)[C@H](O)[C@H]2O)[C@H](O)[C@H]1O
REMARK SMILES IDX 5 1 4 2 2 3 3 4 52 5 50 6 37 7 1 8 53 9 51 11 38 13 39 14
REMARK SMILES IDX 40 15 48 16 41 17 46 18 44 19 49 20 42 22 43 23 47 25 45 27
REMARK SMILES IDX 6 29 7 30 8 31 35 32 9 33 33 34 31 35 36 36 10 38 11 39
REMARK SMILES IDX 12 40 30 41 13 42 29 43 14 44 15 45 16 46 27 47 17 48 25 49
REMARK SMILES IDX 18 50 24 51 26 52 19 53 22 54 21 55 28 56 20 58 23 60 34 62
REMARK SMILES IDX 32 64
REMARK H PARENT 53 10 51 12 49 21 43 24 47 26 45 28 36 37 28 57 20 59 23 61
REMARK H PARENT 34 63 32 65
ROOT
ATOM      1  O   UNL     1      20.775  22.449  13.382  1.00  0.00    -0.347 OA
ENDROOT
BRANCH   1   2
ATOM      2  C   UNL     1      19.667  22.278  12.492  1.00  0.00     0.282 C 
ATOM      3  C   UNL     1      17.760  22.267  13.909  1.00  0.00     0.150 C 
ATOM      4  O   UNL     1      18.553  23.024  12.997  1.00  0.00    -0.344 OA
ATOM      5  C   UNL     1      16.998  21.175  13.139  1.00  0.00     0.174 C 
ATOM      6  C   UNL     1      17.899  20.483  12.099  1.00  0.00     0.180 C 
ATOM      7  C   UNL     1      19.388  20.757  12.343  1.00  0.00     0.209 C 
ATOM      8  C   UNL     1      16.799  23.223  14.607  1.00  0.00     0.041 C 
BRANCH   5   9
ATOM      9  O   UNL     1      16.495  20.208  14.068  1.00  0.00    -0.388 OA
ATOM     10  H   UNL     1      15.996  20.701  14.744  1.00  0.00     0.211 HD
ENDBRANCH   5   9
BRANCH   6  11
ATOM     11  O   UNL     1      17.524  20.901  10.775  1.00  0.00    -0.387 OA
ATOM     12  H   UNL     1      16.811  21.565  10.902  1.00  0.00     0.211 HD
ENDBRANCH   6  11
BRANCH   7  13
ATOM     13  O   UNL     1      20.106  20.218  11.209  1.00  0.00    -0.338 OA
BRANCH  13  14
ATOM     14  C   UNL     1      20.862  21.201  10.496  1.00  0.00     0.282 C 
ATOM     15  O   UNL     1      20.154  21.663   9.351  1.00  0.00    -0.341 OA
ATOM     16  C   UNL     1      22.181  20.529  10.066  1.00  0.00     0.202 C 
ATOM     17  C   UNL     1      20.882  22.664   8.629  1.00  0.00     0.178 C 
ATOM     18  C   UNL     1      23.010  21.499   9.229  1.00  0.00     0.179 C 
ATOM     19  C   UNL     1      22.183  22.061   8.072  1.00  0.00     0.177 C 
BRANCH  16  20
ATOM     20  O   UNL     1      22.966  20.112  11.194  1.00  0.00    -0.385 OA
ATOM     21  H   UNL     1      23.895  20.109  10.878  1.00  0.00     0.211 HD
ENDBRANCH  16  20
BRANCH  17  22
ATOM     22  C   UNL     1      20.006  23.229   7.503  1.00  0.00     0.191 C 
BRANCH  22  23
ATOM     23  O   UNL     1      20.339  24.583   7.205  1.00  0.00    -0.394 OA
ATOM     24  H   UNL     1      19.558  25.124   7.449  1.00  0.00     0.210 HD
ENDBRANCH  22  23
ENDBRANCH  17  22
BRANCH  18  25
ATOM     25  O   UNL     1      24.169  20.835   8.699  1.00  0.00    -0.387 OA
ATOM     26  H   UNL     1      24.139  19.934   9.082  1.00  0.00     0.211 HD
ENDBRANCH  18  25
BRANCH  19  27
ATOM     27  O   UNL     1      22.954  23.039   7.365  1.00  0.00    -0.387 OA
ATOM     28  H   UNL     1      23.874  22.905   7.676  1.00  0.00     0.211 HD
ENDBRANCH  19  27
ENDBRANCH  13  14
ENDBRANCH   7  13
ENDBRANCH   1   2
BRANCH   1  29
ATOM     29  C   UNL     1      20.929  23.796  13.845  1.00  0.00     0.198 C 
BRANCH  29  30
ATOM     30  C   UNL     1      21.414  23.817  15.304  1.00  0.00     0.180 C 
ATOM     31  O   UNL     1      21.008  25.038  15.929  1.00  0.00    -0.332 OA
ATOM     32  C   UNL     1      20.801  22.662  16.113  1.00  0.00     0.177 C 
ATOM     33  C   UNL     1      21.714  25.291  17.152  1.00  0.00     0.339 C 
ATOM     34  C   UNL     1      20.939  22.913  17.633  1.00  0.00     0.180 C 
ATOM     35  C   UNL     1      21.979  23.997  17.971  1.00  0.00     0.214 C 
BRANCH  32  36
ATOM     36  O   UNL     1      21.427  21.429  15.748  1.00  0.00    -0.387 OA
ATOM     37  H   UNL     1      21.237  21.278  14.805  1.00  0.00     0.211 HD
ENDBRANCH  32  36
BRANCH  33  38
ATOM     38  O   UNL     1      20.919  26.164  17.981  1.00  0.00    -0.462 OA
BRANCH  38  39
ATOM     39  C   UNL     1      21.587  27.335  18.218  1.00  0.00     0.123 A 
ATOM     40  C   UNL     1      21.571  27.903  19.489  1.00  0.00     0.047 A 
ATOM     41  C   UNL     1      22.316  27.920  17.187  1.00  0.00     0.047 A 
ATOM     42  C   UNL     1      22.238  29.107  19.715  1.00  0.00     0.016 A 
ATOM     43  C   UNL     1      22.984  29.126  17.414  1.00  0.00     0.016 A 
ATOM     44  C   UNL     1      22.933  29.741  18.675  1.00  0.00     0.021 A 
BRANCH  44  45
ATOM     45  C   UNL     1      23.619  31.022  18.900  1.00  0.00     0.180 A 
ATOM     46  O   UNL     1      24.955  31.001  18.528  1.00  0.00    -0.452 OA
ATOM     47  C   UNL     1      22.987  32.097  19.403  1.00  0.00     0.208 A 
ATOM     48  C   UNL     1      25.705  32.138  18.704  1.00  0.00     0.146 A 
ATOM     49  C   UNL     1      23.765  33.340  19.605  1.00  0.00     0.238 A 
ATOM     50  C   UNL     1      27.048  32.072  18.331  1.00  0.00     0.094 A 
ATOM     51  C   UNL     1      25.180  33.318  19.228  1.00  0.00     0.111 A 
ATOM     52  O   UNL     1      23.225  34.339  20.074  1.00  0.00    -0.285 OA
ATOM     53  C   UNL     1      27.854  33.197  18.488  1.00  0.00     0.123 A 
ATOM     54  C   UNL     1      25.999  34.442  19.380  1.00  0.00     0.134 A 
ATOM     55  C   UNL     1      27.338  34.381  19.009  1.00  0.00     0.093 A 
BRANCH  47  56
ATOM     56  O   UNL     1      21.641  32.128  19.735  1.00  0.00    -0.502 OA
ATOM     57  H   UNL     1      21.210  32.566  18.965  1.00  0.00     0.293 HD
ENDBRANCH  47  56
BRANCH  53  58
ATOM     58  O   UNL     1      29.171  33.180  18.139  1.00  0.00    -0.508 OA
ATOM     59  H   UNL     1      29.248  33.128  17.172  1.00  0.00     0.293 HD
ENDBRANCH  53  58
BRANCH  54  60
ATOM     60  O   UNL     1      25.547  35.631  19.886  1.00  0.00    -0.507 OA
ATOM     61  H   UNL     1      24.718  35.877  19.422  1.00  0.00     0.293 HD
ENDBRANCH  54  60
ENDBRANCH  44  45
ENDBRANCH  38  39
ENDBRANCH  33  38
BRANCH  34  62
ATOM     62  O   UNL     1      19.662  23.255  18.188  1.00  0.00    -0.387 OA
ATOM     63  H   UNL     1      19.793  23.982  18.830  1.00  0.00     0.211 HD
ENDBRANCH  34  62
BRANCH  35  64
ATOM     64  O   UNL     1      23.305  23.515  17.692  1.00  0.00    -0.384 OA
ATOM     65  H   UNL     1      23.716  24.124  17.051  1.00  0.00     0.211 HD
ENDBRANCH  35  64
ENDBRANCH  29  30
ENDBRANCH   1  29
TORSDOF 21
ENDMDL
MODEL 4
REMARK VINA RESULT:    -7.933      2.475      3.966
REMARK INTER + INTRA:         -18.458
REMARK INTER:                 -15.971
REMARK INTRA:                  -2.487
REMARK UNBOUND:                -3.569
REMARK SMILES C[C@@H]1O[C@@H](OC[C@H]2O[C@@H](Oc3ccc(-c4oc5cc(O)cc(O)c5c(=O)c4O)cc3)[C@H](O)[C@@H](O)[C@@H]2O)[C@H](O[C@@H]2O[C@H](CO)[C@@H](O)[C@H](O)[C@H]2O)[C@H](O)[C@H]1O
REMARK SMILES IDX 5 1 4 2 2 3 3 4 52 5 50 6 37 7 1 8 53 9 51 11 38 13 39 14
REMARK SMILES IDX 40 15 48 16 41 17 46 18 44 19 49 20 42 22 43 23 47 25 45 27
REMARK SMILES IDX 6 29 7 30 8 31 35 32 9 33 33 34 31 35 36 36 10 38 11 39
REMARK SMILES IDX 12 40 30 41 13 42 29 43 14 44 15 45 16 46 27 47 17 48 25 49
REMARK SMILES IDX 18 50 24 51 26 52 19 53 22 54 21 55 28 56 20 58 23 60 34 62
REMARK SMILES IDX 32 64
REMARK H PARENT 53 10 51 12 49 21 43 24 47 26 45 28 36 37 28 57 20 59 23 61
REMARK H PARENT 34 63 32 65
ROOT
ATOM      1  O   UNL     1      17.477  20.824  15.428  1.00  0.00    -0.347 OA
ENDROOT
BRANCH   1   2
ATOM      2  C   UNL     1      16.047  20.749  15.475  1.00  0.00     0.282 C 
ATOM      3  C   UNL     1      15.315  22.926  14.867  1.00  0.00     0.150 C 
ATOM      4  O   UNL     1      15.509  21.580  14.439  1.00  0.00    -0.344 OA
ATOM      5  C   UNL     1      14.144  22.980  15.863  1.00  0.00     0.174 C 
ATOM      6  C   UNL     1      14.206  21.821  16.875  1.00  0.00     0.180 C 
ATOM      7  C   UNL     1      15.582  21.145  16.903  1.00  0.00     0.209 C 
ATOM      8  C   UNL     1      15.033  23.779  13.635  1.00  0.00     0.041 C 
BRANCH   5   9
ATOM      9  O   UNL     1      14.174  24.234  16.556  1.00  0.00    -0.388 OA
ATOM     10  H   UNL     1      13.430  24.762  16.212  1.00  0.00     0.211 HD
ENDBRANCH   5   9
BRANCH   6  11
ATOM     11  O   UNL     1      13.182  20.858  16.574  1.00  0.00    -0.387 OA
ATOM     12  H   UNL     1      13.204  20.212  17.313  1.00  0.00     0.211 HD
ENDBRANCH   6  11
BRANCH   7  13
ATOM     13  O   UNL     1      15.458  19.972  17.740  1.00  0.00    -0.338 OA
BRANCH  13  14
ATOM     14  C   UNL     1      16.010  20.148  19.048  1.00  0.00     0.282 C 
ATOM     15  O   UNL     1      15.012  20.558  19.977  1.00  0.00    -0.341 OA
ATOM     16  C   UNL     1      17.101  21.230  18.933  1.00  0.00     0.202 C 
ATOM     17  C   UNL     1      15.536  20.723  21.300  1.00  0.00     0.178 C 
ATOM     18  C   UNL     1      17.685  21.529  20.311  1.00  0.00     0.179 C 
ATOM     19  C   UNL     1      16.575  21.857  21.311  1.00  0.00     0.177 C 
BRANCH  16  20
ATOM     20  O   UNL     1      18.169  20.828  18.062  1.00  0.00    -0.385 OA
ATOM     21  H   UNL     1      17.787  20.839  17.158  1.00  0.00     0.211 HD
ENDBRANCH  16  20
BRANCH  17  22
ATOM     22  C   UNL     1      14.389  21.012  22.277  1.00  0.00     0.191 C 
BRANCH  22  23
ATOM     23  O   UNL     1      14.149  22.411  22.408  1.00  0.00    -0.394 OA
ATOM     24  H   UNL     1      14.900  22.778  22.921  1.00  0.00     0.210 HD
ENDBRANCH  22  23
ENDBRANCH  17  22
BRANCH  18  25
ATOM     25  O   UNL     1      18.595  22.639  20.238  1.00  0.00    -0.387 OA
ATOM     26  H   UNL     1      19.420  22.264  19.867  1.00  0.00     0.211 HD
ENDBRANCH  18  25
BRANCH  19  27
ATOM     27  O   UNL     1      17.143  22.036  22.614  1.00  0.00    -0.387 OA
ATOM     28  H   UNL     1      16.819  22.913  22.910  1.00  0.00     0.211 HD
ENDBRANCH  19  27
ENDBRANCH  13  14
ENDBRANCH   7  13
ENDBRANCH   1   2
BRANCH   1  29
ATOM     29  C   UNL     1      17.963  21.835  14.536  1.00  0.00     0.198 C 
BRANCH  29  30
ATOM     30  C   UNL     1      19.261  22.457  15.078  1.00  0.00     0.180 C 
ATOM     31  O   UNL     1      18.979  23.194  16.270  1.00  0.00    -0.332 OA
ATOM     32  C   UNL     1      20.291  21.376  15.439  1.00  0.00     0.177 C 
ATOM     33  C   UNL     1      20.044  24.086  16.631  1.00  0.00     0.339 C 
ATOM     34  C   UNL     1      21.400  21.948  16.354  1.00  0.00     0.180 C 
ATOM     35  C   UNL     1      21.449  23.486  16.348  1.00  0.00     0.214 C 
BRANCH  32  36
ATOM     36  O   UNL     1      20.857  20.828  14.247  1.00  0.00    -0.387 OA
ATOM     37  H   UNL     1      20.463  19.945  14.120  1.00  0.00     0.211 HD
ENDBRANCH  32  36
BRANCH  33  38
ATOM     38  O   UNL     1      19.973  24.353  18.047  1.00  0.00    -0.462 OA
BRANCH  38  39
ATOM     39  C   UNL     1      20.443  25.609  18.320  1.00  0.00     0.123 A 
ATOM     40  C   UNL     1      20.057  26.687  17.528  1.00  0.00     0.047 A 
ATOM     41  C   UNL     1      21.272  25.798  19.422  1.00  0.00     0.047 A 
ATOM     42  C   UNL     1      20.557  27.959  17.802  1.00  0.00     0.016 A 
ATOM     43  C   UNL     1      21.773  27.073  19.696  1.00  0.00     0.016 A 
ATOM     44  C   UNL     1      21.437  28.161  18.876  1.00  0.00     0.021 A 
BRANCH  44  45
ATOM     45  C   UNL     1      21.988  29.496  19.156  1.00  0.00     0.180 A 
ATOM     46  O   UNL     1      23.215  29.721  18.550  1.00  0.00    -0.452 OA
ATOM     47  C   UNL     1      21.339  30.396  19.915  1.00  0.00     0.208 A 
ATOM     48  C   UNL     1      23.837  30.929  18.751  1.00  0.00     0.146 A 
ATOM     49  C   UNL     1      21.979  31.709  20.152  1.00  0.00     0.238 A 
ATOM     50  C   UNL     1      25.076  31.111  18.137  1.00  0.00     0.094 A 
ATOM     51  C   UNL     1      23.282  31.946  19.526  1.00  0.00     0.111 A 
ATOM     52  O   UNL     1      21.422  32.553  20.850  1.00  0.00    -0.285 OA
ATOM     53  C   UNL     1      25.749  32.318  18.307  1.00  0.00     0.123 A 
ATOM     54  C   UNL     1      23.966  33.155  19.689  1.00  0.00     0.134 A 
ATOM     55  C   UNL     1      25.202  33.341  19.078  1.00  0.00     0.093 A 
BRANCH  47  56
ATOM     56  O   UNL     1      20.092  30.183  20.485  1.00  0.00    -0.502 OA
ATOM     57  H   UNL     1      19.907  29.231  20.317  1.00  0.00     0.293 HD
ENDBRANCH  47  56
BRANCH  53  58
ATOM     58  O   UNL     1      26.962  32.542  17.727  1.00  0.00    -0.508 OA
ATOM     59  H   UNL     1      27.126  33.498  17.680  1.00  0.00     0.293 HD
ENDBRANCH  53  58
BRANCH  54  60
ATOM     60  O   UNL     1      23.479  34.194  20.435  1.00  0.00    -0.507 OA
ATOM     61  H   UNL     1      24.200  34.536  21.007  1.00  0.00     0.293 HD
ENDBRANCH  54  60
ENDBRANCH  44  45
ENDBRANCH  38  39
ENDBRANCH  33  38
BRANCH  34  62
ATOM     62  O   UNL     1      21.229  21.458  17.691  1.00  0.00    -0.387 OA
ATOM     63  H   UNL     1      21.466  20.509  17.701  1.00  0.00     0.211 HD
ENDBRANCH  34  62
BRANCH  35  64
ATOM     64  O   UNL     1      21.926  23.961  15.077  1.00  0.00    -0.384 OA
ATOM     65  H   UNL     1      22.361  23.216  14.623  1.00  0.00     0.211 HD
ENDBRANCH  35  64
ENDBRANCH  29  30
ENDBRANCH   1  29
TORSDOF 21
ENDMDL
MODEL 5
REMARK VINA RESULT:    -7.808      1.322      2.314
REMARK INTER + INTRA:         -18.224
REMARK INTER:                 -15.952
REMARK INTRA:                  -2.272
REMARK UNBOUND:                -3.569
REMARK SMILES C[C@@H]1O[C@@H](OC[C@H]2O[C@@H](Oc3ccc(-c4oc5cc(O)cc(O)c5c(=O)c4O)cc3)[C@H](O)[C@@H](O)[C@@H]2O)[C@H](O[C@@H]2O[C@H](CO)[C@@H](O)[C@H](O)[C@H]2O)[C@H](O)[C@H]1O
REMARK SMILES IDX 5 1 4 2 2 3 3 4 52 5 50 6 37 7 1 8 53 9 51 11 38 13 39 14
REMARK SMILES IDX 40 15 48 16 41 17 46 18 44 19 49 20 42 22 43 23 47 25 45 27
REMARK SMILES IDX 6 29 7 30 8 31 35 32 9 33 33 34 31 35 36 36 10 38 11 39
REMARK SMILES IDX 12 40 30 41 13 42 29 43 14 44 15 45 16 46 27 47 17 48 25 49
REMARK SMILES IDX 18 50 24 51 26 52 19 53 22 54 21 55 28 56 20 58 23 60 34 62
REMARK SMILES IDX 32 64
REMARK H PARENT 53 10 51 12 49 21 43 24 47 26 45 28 36 37 28 57 20 59 23 61
REMARK H PARENT 34 63 32 65
ROOT
ATOM      1  O   UNL     1      18.110  22.571  14.957  1.00  0.00    -0.347 OA
ENDROOT
BRANCH   1   2
ATOM      2  C   UNL     1      16.933  21.950  15.485  1.00  0.00     0.282 C 
ATOM      3  C   UNL     1      15.142  23.293  14.690  1.00  0.00     0.150 C 
ATOM      4  O   UNL     1      15.875  22.081  14.528  1.00  0.00    -0.344 OA
ATOM      5  C   UNL     1      14.304  23.213  15.978  1.00  0.00     0.174 C 
ATOM      6  C   UNL     1      15.108  22.604  17.141  1.00  0.00     0.180 C 
ATOM      7  C   UNL     1      16.617  22.593  16.863  1.00  0.00     0.209 C 
ATOM      8  C   UNL     1      14.255  23.477  13.464  1.00  0.00     0.041 C 
BRANCH   5   9
ATOM      9  O   UNL     1      13.856  24.527  16.330  1.00  0.00    -0.388 OA
ATOM     10  H   UNL     1      14.328  24.775  17.147  1.00  0.00     0.211 HD
ENDBRANCH   5   9
BRANCH   6  11
ATOM     11  O   UNL     1      14.639  21.273  17.412  1.00  0.00    -0.387 OA
ATOM     12  H   UNL     1      14.277  20.943  16.561  1.00  0.00     0.211 HD
ENDBRANCH   6  11
BRANCH   7  13
ATOM     13  O   UNL     1      17.235  21.838  17.931  1.00  0.00    -0.338 OA
BRANCH  13  14
ATOM     14  C   UNL     1      18.533  22.320  18.289  1.00  0.00     0.282 C 
ATOM     15  O   UNL     1      18.543  23.740  18.391  1.00  0.00    -0.341 OA
ATOM     16  C   UNL     1      19.503  21.863  17.182  1.00  0.00     0.202 C 
ATOM     17  C   UNL     1      19.829  24.248  18.768  1.00  0.00     0.178 C 
ATOM     18  C   UNL     1      20.901  22.410  17.457  1.00  0.00     0.179 C 
ATOM     19  C   UNL     1      20.858  23.924  17.672  1.00  0.00     0.177 C 
BRANCH  16  20
ATOM     20  O   UNL     1      19.582  20.432  17.092  1.00  0.00    -0.385 OA
ATOM     21  H   UNL     1      18.776  20.157  16.604  1.00  0.00     0.211 HD
ENDBRANCH  16  20
BRANCH  17  22
ATOM     22  C   UNL     1      19.735  25.760  19.012  1.00  0.00     0.191 C 
BRANCH  22  23
ATOM     23  O   UNL     1      20.954  26.287  19.530  1.00  0.00    -0.394 OA
ATOM     24  H   UNL     1      20.992  27.228  19.257  1.00  0.00     0.210 HD
ENDBRANCH  22  23
ENDBRANCH  17  22
BRANCH  18  25
ATOM     25  O   UNL     1      21.777  22.117  16.357  1.00  0.00    -0.387 OA
ATOM     26  H   UNL     1      21.208  22.168  15.562  1.00  0.00     0.211 HD
ENDBRANCH  18  25
BRANCH  19  27
ATOM     27  O   UNL     1      22.165  24.394  18.025  1.00  0.00    -0.387 OA
ATOM     28  H   UNL     1      22.195  24.337  19.004  1.00  0.00     0.211 HD
ENDBRANCH  19  27
ENDBRANCH  13  14
ENDBRANCH   7  13
ENDBRANCH   1   2
BRANCH   1  29
ATOM     29  C   UNL     1      18.271  22.374  13.546  1.00  0.00     0.198 C 
BRANCH  29  30
ATOM     30  C   UNL     1      19.369  23.297  12.992  1.00  0.00     0.180 C 
ATOM     31  O   UNL     1      20.325  23.578  14.018  1.00  0.00    -0.332 OA
ATOM     32  C   UNL     1      20.124  22.633  11.830  1.00  0.00     0.177 C 
ATOM     33  C   UNL     1      21.165  24.697  13.697  1.00  0.00     0.339 C 
ATOM     34  C   UNL     1      21.465  23.355  11.553  1.00  0.00     0.180 C 
ATOM     35  C   UNL     1      21.535  24.755  12.189  1.00  0.00     0.214 C 
BRANCH  32  36
ATOM     36  O   UNL     1      19.305  22.629  10.659  1.00  0.00    -0.387 OA
ATOM     37  H   UNL     1      18.492  22.139  10.877  1.00  0.00     0.211 HD
ENDBRANCH  32  36
BRANCH  33  38
ATOM     38  O   UNL     1      22.399  24.584  14.435  1.00  0.00    -0.462 OA
BRANCH  38  39
ATOM     39  C   UNL     1      22.628  25.723  15.159  1.00  0.00     0.123 A 
ATOM     40  C   UNL     1      23.921  26.051  15.557  1.00  0.00     0.047 A 
ATOM     41  C   UNL     1      21.559  26.567  15.449  1.00  0.00     0.047 A 
ATOM     42  C   UNL     1      24.140  27.203  16.311  1.00  0.00     0.016 A 
ATOM     43  C   UNL     1      21.780  27.722  16.203  1.00  0.00     0.016 A 
ATOM     44  C   UNL     1      23.069  28.039  16.660  1.00  0.00     0.021 A 
BRANCH  44  45
ATOM     45  C   UNL     1      23.289  29.243  17.475  1.00  0.00     0.180 A 
ATOM     46  O   UNL     1      24.453  29.922  17.146  1.00  0.00    -0.452 OA
ATOM     47  C   UNL     1      22.424  29.635  18.427  1.00  0.00     0.208 A 
ATOM     48  C   UNL     1      24.774  31.058  17.849  1.00  0.00     0.146 A 
ATOM     49  C   UNL     1      22.738  30.855  19.203  1.00  0.00     0.238 A 
ATOM     50  C   UNL     1      25.960  31.703  17.498  1.00  0.00     0.094 A 
ATOM     51  C   UNL     1      23.974  31.567  18.870  1.00  0.00     0.111 A 
ATOM     52  O   UNL     1      21.978  31.237  20.090  1.00  0.00    -0.285 OA
ATOM     53  C   UNL     1      26.332  32.859  18.179  1.00  0.00     0.123 A 
ATOM     54  C   UNL     1      24.357  32.729  19.546  1.00  0.00     0.134 A 
ATOM     55  C   UNL     1      25.539  33.377  19.200  1.00  0.00     0.093 A 
BRANCH  47  56
ATOM     56  O   UNL     1      21.240  28.977  18.725  1.00  0.00    -0.502 OA
ATOM     57  H   UNL     1      21.186  28.258  18.055  1.00  0.00     0.293 HD
ENDBRANCH  47  56
BRANCH  53  58
ATOM     58  O   UNL     1      27.481  33.524  17.871  1.00  0.00    -0.508 OA
ATOM     59  H   UNL     1      27.267  34.433  17.603  1.00  0.00     0.293 HD
ENDBRANCH  53  58
BRANCH  54  60
ATOM     60  O   UNL     1      23.618  33.283  20.557  1.00  0.00    -0.507 OA
ATOM     61  H   UNL     1      23.918  34.208  20.696  1.00  0.00     0.293 HD
ENDBRANCH  54  60
ENDBRANCH  44  45
ENDBRANCH  38  39
ENDBRANCH  33  38
BRANCH  34  62
ATOM     62  O   UNL     1      22.557  22.543  12.007  1.00  0.00    -0.387 OA
ATOM     63  H   UNL     1      22.662  22.683  12.970  1.00  0.00     0.211 HD
ENDBRANCH  34  62
BRANCH  35  64
ATOM     64  O   UNL     1      20.642  25.653  11.509  1.00  0.00    -0.384 OA
ATOM     65  H   UNL     1      20.940  25.728  10.584  1.00  0.00     0.211 HD
ENDBRANCH  35  64
ENDBRANCH  29  30
ENDBRANCH   1  29
TORSDOF 21
ENDMDL
MODEL 6
REMARK VINA RESULT:    -7.695      2.009      6.026
REMARK INTER + INTRA:         -18.012
REMARK INTER:                 -16.514
REMARK INTRA:                  -1.498
REMARK UNBOUND:                -3.569
REMARK SMILES C[C@@H]1O[C@@H](OC[C@H]2O[C@@H](Oc3ccc(-c4oc5cc(O)cc(O)c5c(=O)c4O)cc3)[C@H](O)[C@@H](O)[C@@H]2O)[C@H](O[C@@H]2O[C@H](CO)[C@@H](O)[C@H](O)[C@H]2O)[C@H](O)[C@H]1O
REMARK SMILES IDX 5 1 4 2 2 3 3 4 52 5 50 6 37 7 1 8 53 9 51 11 38 13 39 14
REMARK SMILES IDX 40 15 48 16 41 17 46 18 44 19 49 20 42 22 43 23 47 25 45 27
REMARK SMILES IDX 6 29 7 30 8 31 35 32 9 33 33 34 31 35 36 36 10 38 11 39
REMARK SMILES IDX 12 40 30 41 13 42 29 43 14 44 15 45 16 46 27 47 17 48 25 49
REMARK SMILES IDX 18 50 24 51 26 52 19 53 22 54 21 55 28 56 20 58 23 60 34 62
REMARK SMILES IDX 32 64
REMARK H PARENT 53 10 51 12 49 21 43 24 47 26 45 28 36 37 28 57 20 59 23 61
REMARK H PARENT 34 63 32 65
ROOT
ATOM      1  O   UNL     1      17.865  21.997  13.496  1.00  0.00    -0.347 OA
ENDROOT
BRANCH   1   2
ATOM      2  C   UNL     1      19.208  21.586  13.217  1.00  0.00     0.282 C 
ATOM      3  C   UNL     1      19.994  20.685  15.269  1.00  0.00     0.150 C 
ATOM      4  O   UNL     1      19.490  20.398  13.967  1.00  0.00    -0.344 OA
ATOM      5  C   UNL     1      21.421  21.249  15.151  1.00  0.00     0.174 C 
ATOM      6  C   UNL     1      21.532  22.274  14.008  1.00  0.00     0.180 C 
ATOM      7  C   UNL     1      20.160  22.771  13.535  1.00  0.00     0.209 C 
ATOM      8  C   UNL     1      19.976  19.394  16.079  1.00  0.00     0.041 C 
BRANCH   5   9
ATOM      9  O   UNL     1      21.789  21.862  16.392  1.00  0.00    -0.388 OA
ATOM     10  H   UNL     1      21.009  21.809  16.974  1.00  0.00     0.211 HD
ENDBRANCH   5   9
BRANCH   6  11
ATOM     11  O   UNL     1      22.262  21.701  12.910  1.00  0.00    -0.387 OA
ATOM     12  H   UNL     1      23.204  21.918  13.078  1.00  0.00     0.211 HD
ENDBRANCH   6  11
BRANCH   7  13
ATOM     13  O   UNL     1      20.387  23.572  12.352  1.00  0.00    -0.338 OA
BRANCH  13  14
ATOM     14  C   UNL     1      19.915  22.956  11.151  1.00  0.00     0.282 C 
ATOM     15  O   UNL     1      20.714  21.831  10.801  1.00  0.00    -0.341 OA
ATOM     16  C   UNL     1      19.990  24.023  10.041  1.00  0.00     0.202 C 
ATOM     17  C   UNL     1      20.250  21.184   9.610  1.00  0.00     0.178 C 
ATOM     18  C   UNL     1      19.573  23.413   8.705  1.00  0.00     0.179 C 
ATOM     19  C   UNL     1      20.375  22.143   8.414  1.00  0.00     0.177 C 
BRANCH  16  20
ATOM     20  O   UNL     1      19.139  25.147  10.315  1.00  0.00    -0.385 OA
ATOM     21  H   UNL     1      18.820  25.451   9.438  1.00  0.00     0.211 HD
ENDBRANCH  16  20
BRANCH  17  22
ATOM     22  C   UNL     1      21.052  19.897   9.375  1.00  0.00     0.191 C 
BRANCH  22  23
ATOM     23  O   UNL     1      21.989  19.662  10.423  1.00  0.00    -0.394 OA
ATOM     24  H   UNL     1      21.803  18.764  10.770  1.00  0.00     0.210 HD
ENDBRANCH  22  23
ENDBRANCH  17  22
BRANCH  18  25
ATOM     25  O   UNL     1      19.782  24.355   7.640  1.00  0.00    -0.387 OA
ATOM     26  H   UNL     1      20.024  23.808   6.865  1.00  0.00     0.211 HD
ENDBRANCH  18  25
BRANCH  19  27
ATOM     27  O   UNL     1      19.895  21.541   7.206  1.00  0.00    -0.387 OA
ATOM     28  H   UNL     1      19.643  20.629   7.464  1.00  0.00     0.211 HD
ENDBRANCH  19  27
ENDBRANCH  13  14
ENDBRANCH   7  13
ENDBRANCH   1   2
BRANCH   1  29
ATOM     29  C   UNL     1      17.786  23.089  14.421  1.00  0.00     0.198 C 
BRANCH  29  30
ATOM     30  C   UNL     1      17.604  22.571  15.857  1.00  0.00     0.180 C 
ATOM     31  O   UNL     1      18.252  23.457  16.774  1.00  0.00    -0.332 OA
ATOM     32  C   UNL     1      16.119  22.513  16.246  1.00  0.00     0.177 C 
ATOM     33  C   UNL     1      18.436  22.869  18.070  1.00  0.00     0.339 C 
ATOM     34  C   UNL     1      15.949  22.404  17.780  1.00  0.00     0.180 C 
ATOM     35  C   UNL     1      17.242  21.973  18.497  1.00  0.00     0.214 C 
BRANCH  32  36
ATOM     36  O   UNL     1      15.488  21.410  15.591  1.00  0.00    -0.387 OA
ATOM     37  H   UNL     1      15.028  21.764  14.809  1.00  0.00     0.211 HD
ENDBRANCH  32  36
BRANCH  33  38
ATOM     38  O   UNL     1      18.552  23.921  19.050  1.00  0.00    -0.462 OA
BRANCH  38  39
ATOM     39  C   UNL     1      19.465  24.856  18.642  1.00  0.00     0.123 A 
ATOM     40  C   UNL     1      19.088  26.189  18.510  1.00  0.00     0.047 A 
ATOM     41  C   UNL     1      20.779  24.461  18.406  1.00  0.00     0.047 A 
ATOM     42  C   UNL     1      20.021  27.130  18.074  1.00  0.00     0.016 A 
ATOM     43  C   UNL     1      21.712  25.405  17.970  1.00  0.00     0.016 A 
ATOM     44  C   UNL     1      21.336  26.743  17.779  1.00  0.00     0.021 A 
BRANCH  44  45
ATOM     45  C   UNL     1      22.319  27.725  17.296  1.00  0.00     0.180 A 
ATOM     46  O   UNL     1      22.672  28.664  18.255  1.00  0.00    -0.452 OA
ATOM     47  C   UNL     1      22.821  27.686  16.050  1.00  0.00     0.208 A 
ATOM     48  C   UNL     1      23.574  29.643  17.917  1.00  0.00     0.146 A 
ATOM     49  C   UNL     1      23.797  28.726  15.651  1.00  0.00     0.238 A 
ATOM     50  C   UNL     1      23.892  30.576  18.904  1.00  0.00     0.094 A 
ATOM     51  C   UNL     1      24.162  29.728  16.655  1.00  0.00     0.111 A 
ATOM     52  O   UNL     1      24.268  28.730  14.517  1.00  0.00    -0.285 OA
ATOM     53  C   UNL     1      24.802  31.589  18.613  1.00  0.00     0.123 A 
ATOM     54  C   UNL     1      25.075  30.749  16.376  1.00  0.00     0.134 A 
ATOM     55  C   UNL     1      25.396  31.682  17.357  1.00  0.00     0.093 A 
BRANCH  47  56
ATOM     56  O   UNL     1      22.497  26.722  15.107  1.00  0.00    -0.502 OA
ATOM     57  H   UNL     1      23.255  26.732  14.478  1.00  0.00     0.293 HD
ENDBRANCH  47  56
BRANCH  53  58
ATOM     58  O   UNL     1      25.144  32.524  19.545  1.00  0.00    -0.508 OA
ATOM     59  H   UNL     1      24.359  32.764  20.064  1.00  0.00     0.293 HD
ENDBRANCH  53  58
BRANCH  54  60
ATOM     60  O   UNL     1      25.688  30.890  15.160  1.00  0.00    -0.507 OA
ATOM     61  H   UNL     1      26.050  30.019  14.887  1.00  0.00     0.293 HD
ENDBRANCH  54  60
ENDBRANCH  44  45
ENDBRANCH  38  39
ENDBRANCH  33  38
BRANCH  34  62
ATOM     62  O   UNL     1      15.476  23.651  18.308  1.00  0.00    -0.387 OA
ATOM     63  H   UNL     1      14.669  23.904  17.816  1.00  0.00     0.211 HD
ENDBRANCH  34  62
BRANCH  35  64
ATOM     64  O   UNL     1      17.540  20.599  18.197  1.00  0.00    -0.384 OA
ATOM     65  H   UNL     1      17.639  20.519  17.230  1.00  0.00     0.211 HD
ENDBRANCH  35  64
ENDBRANCH  29  30
ENDBRANCH   1  29
TORSDOF 21
ENDMDL
MODEL 7
REMARK VINA RESULT:    -7.562      1.884      5.535
REMARK INTER + INTRA:         -17.762
REMARK INTER:                 -15.362
REMARK INTRA:                  -2.400
REMARK UNBOUND:                -3.569
REMARK SMILES C[C@@H]1O[C@@H](OC[C@H]2O[C@@H](Oc3ccc(-c4oc5cc(O)cc(O)c5c(=O)c4O)cc3)[C@H](O)[C@@H](O)[C@@H]2O)[C@H](O[C@@H]2O[C@H](CO)[C@@H](O)[C@H](O)[C@H]2O)[C@H](O)[C@H]1O
REMARK SMILES IDX 5 1 4 2 2 3 3 4 52 5 50 6 37 7 1 8 53 9 51 11 38 13 39 14
REMARK SMILES IDX 40 15 48 16 41 17 46 18 44 19 49 20 42 22 43 23 47 25 45 27
REMARK SMILES IDX 6 29 7 30 8 31 35 32 9 33 33 34 31 35 36 36 10 38 11 39
REMARK SMILES IDX 12 40 30 41 13 42 29 43 14 44 15 45 16 46 27 47 17 48 25 49
REMARK SMILES IDX 18 50 24 51 26 52 19 53 22 54 21 55 28 56 20 58 23 60 34 62
REMARK SMILES IDX 32 64
REMARK H PARENT 53 10 51 12 49 21 43 24 47 26 45 28 36 37 28 57 20 59 23 61
REMARK H PARENT 34 63 32 65
ROOT
ATOM      1  O   UNL     1      21.135  21.836  13.602  1.00  0.00    -0.347 OA
ENDROOT
BRANCH   1   2
ATOM      2  C   UNL     1      20.435  21.696  12.361  1.00  0.00     0.282 C 
ATOM      3  C   UNL     1      22.116  21.933  10.698  1.00  0.00     0.150 C 
ATOM      4  O   UNL     1      21.288  21.027  11.425  1.00  0.00    -0.344 OA
ATOM      5  C   UNL     1      21.249  22.737   9.714  1.00  0.00     0.174 C 
ATOM      6  C   UNL     1      19.935  23.203  10.366  1.00  0.00     0.180 C 
ATOM      7  C   UNL     1      19.976  23.106  11.896  1.00  0.00     0.209 C 
ATOM      8  C   UNL     1      23.177  21.121   9.965  1.00  0.00     0.041 C 
BRANCH   5   9
ATOM      9  O   UNL     1      21.992  23.871   9.251  1.00  0.00    -0.388 OA
ATOM     10  H   UNL     1      22.506  24.200  10.012  1.00  0.00     0.211 HD
ENDBRANCH   5   9
BRANCH   6  11
ATOM     11  O   UNL     1      18.835  22.437   9.846  1.00  0.00    -0.387 OA
ATOM     12  H   UNL     1      18.349  23.046   9.249  1.00  0.00     0.211 HD
ENDBRANCH   6  11
BRANCH   7  13
ATOM     13  O   UNL     1      18.640  23.388  12.372  1.00  0.00    -0.338 OA
BRANCH  13  14
ATOM     14  C   UNL     1      18.179  22.455  13.353  1.00  0.00     0.282 C 
ATOM     15  O   UNL     1      17.198  21.578  12.808  1.00  0.00    -0.341 OA
ATOM     16  C   UNL     1      17.568  23.279  14.504  1.00  0.00     0.202 C 
ATOM     17  C   UNL     1      16.733  20.620  13.767  1.00  0.00     0.178 C 
ATOM     18  C   UNL     1      16.982  22.344  15.559  1.00  0.00     0.179 C 
ATOM     19  C   UNL     1      16.017  21.344  14.920  1.00  0.00     0.177 C 
BRANCH  16  20
ATOM     20  O   UNL     1      18.541  24.126  15.135  1.00  0.00    -0.385 OA
ATOM     21  H   UNL     1      19.306  23.543  15.331  1.00  0.00     0.211 HD
ENDBRANCH  16  20
BRANCH  17  22
ATOM     22  C   UNL     1      15.800  19.614  13.080  1.00  0.00     0.191 C 
BRANCH  22  23
ATOM     23  O   UNL     1      15.046  20.222  12.035  1.00  0.00    -0.394 OA
ATOM     24  H   UNL     1      14.186  19.752  11.999  1.00  0.00     0.210 HD
ENDBRANCH  22  23
ENDBRANCH  17  22
BRANCH  18  25
ATOM     25  O   UNL     1      16.280  23.100  16.560  1.00  0.00    -0.387 OA
ATOM     26  H   UNL     1      15.975  23.907  16.097  1.00  0.00     0.211 HD
ENDBRANCH  18  25
BRANCH  19  27
ATOM     27  O   UNL     1      15.559  20.420  15.914  1.00  0.00    -0.387 OA
ATOM     28  H   UNL     1      14.903  19.858  15.450  1.00  0.00     0.211 HD
ENDBRANCH  19  27
ENDBRANCH  13  14
ENDBRANCH   7  13
ENDBRANCH   1   2
BRANCH   1  29
ATOM     29  C   UNL     1      21.672  23.149  13.807  1.00  0.00     0.198 C 
BRANCH  29  30
ATOM     30  C   UNL     1      21.850  23.433  15.308  1.00  0.00     0.180 C 
ATOM     31  O   UNL     1      21.355  24.740  15.611  1.00  0.00    -0.332 OA
ATOM     32  C   UNL     1      21.060  22.432  16.165  1.00  0.00     0.177 C 
ATOM     33  C   UNL     1      21.803  25.216  16.889  1.00  0.00     0.339 C 
ATOM     34  C   UNL     1      20.891  22.951  17.613  1.00  0.00     0.180 C 
ATOM     35  C   UNL     1      21.866  24.091  17.959  1.00  0.00     0.214 C 
BRANCH  32  36
ATOM     36  O   UNL     1      21.717  21.163  16.159  1.00  0.00    -0.387 OA
ATOM     37  H   UNL     1      21.808  20.881  17.087  1.00  0.00     0.211 HD
ENDBRANCH  32  36
BRANCH  33  38
ATOM     38  O   UNL     1      20.877  26.211  17.371  1.00  0.00    -0.462 OA
BRANCH  38  39
ATOM     39  C   UNL     1      21.543  27.355  17.717  1.00  0.00     0.123 A 
ATOM     40  C   UNL     1      21.576  27.771  19.045  1.00  0.00     0.047 A 
ATOM     41  C   UNL     1      22.223  28.067  16.732  1.00  0.00     0.047 A 
ATOM     42  C   UNL     1      22.241  28.948  19.384  1.00  0.00     0.016 A 
ATOM     43  C   UNL     1      22.889  29.247  17.073  1.00  0.00     0.016 A 
ATOM     44  C   UNL     1      22.886  29.709  18.398  1.00  0.00     0.021 A 
BRANCH  44  45
ATOM     45  C   UNL     1      23.569  30.965  18.744  1.00  0.00     0.180 A 
ATOM     46  O   UNL     1      24.901  30.989  18.356  1.00  0.00    -0.452 OA
ATOM     47  C   UNL     1      22.939  31.980  19.361  1.00  0.00     0.208 A 
ATOM     48  C   UNL     1      25.649  32.106  18.638  1.00  0.00     0.146 A 
ATOM     49  C   UNL     1      23.715  33.200  19.679  1.00  0.00     0.238 A 
ATOM     50  C   UNL     1      26.987  32.085  18.245  1.00  0.00     0.094 A 
ATOM     51  C   UNL     1      25.125  33.224  19.285  1.00  0.00     0.111 A 
ATOM     52  O   UNL     1      23.177  34.143  20.253  1.00  0.00    -0.285 OA
ATOM     53  C   UNL     1      27.790  33.193  18.505  1.00  0.00     0.123 A 
ATOM     54  C   UNL     1      25.941  34.331  19.540  1.00  0.00     0.134 A 
ATOM     55  C   UNL     1      27.276  34.315  19.150  1.00  0.00     0.093 A 
BRANCH  47  56
ATOM     56  O   UNL     1      21.597  31.969  19.710  1.00  0.00    -0.502 OA
ATOM     57  H   UNL     1      21.207  31.254  19.157  1.00  0.00     0.293 HD
ENDBRANCH  47  56
BRANCH  53  58
ATOM     58  O   UNL     1      29.103  33.218  18.140  1.00  0.00    -0.508 OA
ATOM     59  H   UNL     1      29.229  32.669  17.349  1.00  0.00     0.293 HD
ENDBRANCH  53  58
BRANCH  54  60
ATOM     60  O   UNL     1      25.491  35.460  20.170  1.00  0.00    -0.507 OA
ATOM     61  H   UNL     1      25.667  36.234  19.592  1.00  0.00     0.293 HD
ENDBRANCH  54  60
ENDBRANCH  44  45
ENDBRANCH  38  39
ENDBRANCH  33  38
BRANCH  34  62
ATOM     62  O   UNL     1      19.536  23.368  17.826  1.00  0.00    -0.387 OA
ATOM     63  H   UNL     1      19.547  24.303  18.114  1.00  0.00     0.211 HD
ENDBRANCH  34  62
BRANCH  35  64
ATOM     64  O   UNL     1      23.209  23.585  18.046  1.00  0.00    -0.384 OA
ATOM     65  H   UNL     1      23.713  24.175  18.635  1.00  0.00     0.211 HD
ENDBRANCH  35  64
ENDBRANCH  29  30
ENDBRANCH   1  29
TORSDOF 21
ENDMDL
MODEL 8
REMARK VINA RESULT:    -7.390      1.652      4.862
REMARK INTER + INTRA:         -17.440
REMARK INTER:                 -15.696
REMARK INTRA:                  -1.744
REMARK UNBOUND:                -3.569
REMARK SMILES C[C@@H]1O[C@@H](OC[C@H]2O[C@@H](Oc3ccc(-c4oc5cc(O)cc(O)c5c(=O)c4O)cc3)[C@H](O)[C@@H](O)[C@@H]2O)[C@H](O[C@@H]2O[C@H](CO)[C@@H](O)[C@H](O)[C@H]2O)[C@H](O)[C@H]1O
REMARK SMILES IDX 5 1 4 2 2 3 3 4 52 5 50 6 37 7 1 8 53 9 51 11 38 13 39 14
REMARK SMILES IDX 40 15 48 16 41 17 46 18 44 19 49 20 42 22 43 23 47 25 45 27
REMARK SMILES IDX 6 29 7 30 8 31 35 32 9 33 33 34 31 35 36 36 10 38 11 39
REMARK SMILES IDX 12 40 30 41 13 42 29 43 14 44 15 45 16 46 27 47 17 48 25 49
REMARK SMILES IDX 18 50 24 51 26 52 19 53 22 54 21 55 28 56 20 58 23 60 34 62
REMARK SMILES IDX 32 64
REMARK H PARENT 53 10 51 12 49 21 43 24 47 26 45 28 36 37 28 57 20 59 23 61
REMARK H PARENT 34 63 32 65
ROOT
ATOM      1  O   UNL     1      19.528  20.387  16.040  1.00  0.00    -0.347 OA
ENDROOT
BRANCH   1   2
ATOM      2  C   UNL     1      19.216  19.885  14.736  1.00  0.00     0.282 C 
ATOM      3  C   UNL     1      20.394  21.315  13.248  1.00  0.00     0.150 C 
ATOM      4  O   UNL     1      20.365  20.045  13.895  1.00  0.00    -0.344 OA
ATOM      5  C   UNL     1      19.292  21.367  12.176  1.00  0.00     0.174 C 
ATOM      6  C   UNL     1      17.973  20.761  12.689  1.00  0.00     0.180 C 
ATOM      7  C   UNL     1      17.951  20.622  14.217  1.00  0.00     0.209 C 
ATOM      8  C   UNL     1      21.775  21.501  12.631  1.00  0.00     0.041 C 
BRANCH   5   9
ATOM      9  O   UNL     1      19.083  22.727  11.781  1.00  0.00    -0.388 OA
ATOM     10  H   UNL     1      18.146  22.803  11.520  1.00  0.00     0.211 HD
ENDBRANCH   5   9
BRANCH   6  11
ATOM     11  O   UNL     1      17.749  19.485  12.067  1.00  0.00    -0.387 OA
ATOM     12  H   UNL     1      16.933  19.592  11.532  1.00  0.00     0.211 HD
ENDBRANCH   6  11
BRANCH   7  13
ATOM     13  O   UNL     1      16.756  19.880  14.554  1.00  0.00    -0.338 OA
BRANCH  13  14
ATOM     14  C   UNL     1      15.728  20.691  15.130  1.00  0.00     0.282 C 
ATOM     15  O   UNL     1      15.155  21.561  14.160  1.00  0.00    -0.341 OA
ATOM     16  C   UNL     1      16.384  21.513  16.256  1.00  0.00     0.202 C 
ATOM     17  C   UNL     1      14.109  22.372  14.708  1.00  0.00     0.178 C 
ATOM     18  C   UNL     1      15.360  22.465  16.870  1.00  0.00     0.179 C 
ATOM     19  C   UNL     1      14.685  23.306  15.786  1.00  0.00     0.177 C 
BRANCH  16  20
ATOM     20  O   UNL     1      16.912  20.677  17.297  1.00  0.00    -0.385 OA
ATOM     21  H   UNL     1      16.458  20.966  18.119  1.00  0.00     0.211 HD
ENDBRANCH  16  20
BRANCH  17  22
ATOM     22  C   UNL     1      13.432  23.170  13.586  1.00  0.00     0.191 C 
BRANCH  22  23
ATOM     23  O   UNL     1      14.373  23.951  12.854  1.00  0.00    -0.394 OA
ATOM     24  H   UNL     1      14.983  24.346  13.513  1.00  0.00     0.210 HD
ENDBRANCH  22  23
ENDBRANCH  17  22
BRANCH  18  25
ATOM     25  O   UNL     1      15.996  23.340  17.816  1.00  0.00    -0.387 OA
ATOM     26  H   UNL     1      16.624  23.871  17.284  1.00  0.00     0.211 HD
ENDBRANCH  18  25
BRANCH  19  27
ATOM     27  O   UNL     1      13.662  24.116  16.378  1.00  0.00    -0.387 OA
ATOM     28  H   UNL     1      13.307  24.651  15.637  1.00  0.00     0.211 HD
ENDBRANCH  19  27
ENDBRANCH  13  14
ENDBRANCH   7  13
ENDBRANCH   1   2
BRANCH   1  29
ATOM     29  C   UNL     1      20.914  20.710  16.207  1.00  0.00     0.198 C 
BRANCH  29  30
ATOM     30  C   UNL     1      21.074  22.102  16.843  1.00  0.00     0.180 C 
ATOM     31  O   UNL     1      21.658  22.999  15.895  1.00  0.00    -0.332 OA
ATOM     32  C   UNL     1      19.714  22.688  17.254  1.00  0.00     0.177 C 
ATOM     33  C   UNL     1      22.164  24.194  16.508  1.00  0.00     0.339 C 
ATOM     34  C   UNL     1      19.816  24.213  17.494  1.00  0.00     0.180 C 
ATOM     35  C   UNL     1      21.266  24.697  17.672  1.00  0.00     0.214 C 
BRANCH  32  36
ATOM     36  O   UNL     1      19.234  22.025  18.426  1.00  0.00    -0.387 OA
ATOM     37  H   UNL     1      19.811  22.293  19.164  1.00  0.00     0.211 HD
ENDBRANCH  32  36
BRANCH  33  38
ATOM     38  O   UNL     1      22.209  25.245  15.521  1.00  0.00    -0.462 OA
BRANCH  38  39
ATOM     39  C   UNL     1      22.593  26.425  16.098  1.00  0.00     0.123 A 
ATOM     40  C   UNL     1      23.941  26.682  16.333  1.00  0.00     0.047 A 
ATOM     41  C   UNL     1      21.624  27.378  16.401  1.00  0.00     0.047 A 
ATOM     42  C   UNL     1      24.319  27.879  16.939  1.00  0.00     0.016 A 
ATOM     43  C   UNL     1      22.005  28.577  17.007  1.00  0.00     0.016 A 
ATOM     44  C   UNL     1      23.354  28.829  17.303  1.00  0.00     0.021 A 
BRANCH  44  45
ATOM     45  C   UNL     1      23.744  30.084  17.964  1.00  0.00     0.180 A 
ATOM     46  O   UNL     1      24.938  30.606  17.488  1.00  0.00    -0.452 OA
ATOM     47  C   UNL     1      22.992  30.655  18.921  1.00  0.00     0.208 A 
ATOM     48  C   UNL     1      25.413  31.770  18.040  1.00  0.00     0.146 A 
ATOM     49  C   UNL     1      23.473  31.912  19.536  1.00  0.00     0.238 A 
ATOM     50  C   UNL     1      26.624  32.255  17.545  1.00  0.00     0.094 A 
ATOM     51  C   UNL     1      24.741  32.460  19.048  1.00  0.00     0.111 A 
ATOM     52  O   UNL     1      22.820  32.458  20.422  1.00  0.00    -0.285 OA
ATOM     53  C   UNL     1      27.150  33.433  18.069  1.00  0.00     0.123 A 
ATOM     54  C   UNL     1      25.279  33.642  19.566  1.00  0.00     0.134 A 
ATOM     55  C   UNL     1      26.486  34.130  19.075  1.00  0.00     0.093 A 
BRANCH  47  56
ATOM     56  O   UNL     1      21.777  30.153  19.364  1.00  0.00    -0.502 OA
ATOM     57  H   UNL     1      21.897  29.176  19.345  1.00  0.00     0.293 HD
ENDBRANCH  47  56
BRANCH  53  58
ATOM     58  O   UNL     1      28.330  33.945  17.617  1.00  0.00    -0.508 OA
ATOM     59  H   UNL     1      28.947  33.219  17.430  1.00  0.00     0.293 HD
ENDBRANCH  53  58
BRANCH  54  60
ATOM     60  O   UNL     1      24.671  34.368  20.555  1.00  0.00    -0.507 OA
ATOM     61  H   UNL     1      23.765  34.018  20.691  1.00  0.00     0.293 HD
ENDBRANCH  54  60
ENDBRANCH  44  45
ENDBRANCH  38  39
ENDBRANCH  33  38
BRANCH  34  62
ATOM     62  O   UNL     1      19.181  24.919  16.420  1.00  0.00    -0.387 OA
ATOM     63  H   UNL     1      19.830  25.546  16.041  1.00  0.00     0.211 HD
ENDBRANCH  34  62
BRANCH  35  64
ATOM     64  O   UNL     1      21.795  24.227  18.924  1.00  0.00    -0.384 OA
ATOM     65  H   UNL     1      21.948  23.268  18.842  1.00  0.00     0.211 HD
ENDBRANCH  35  64
ENDBRANCH  29  30
ENDBRANCH   1  29
TORSDOF 21
ENDMDL
MODEL 9
REMARK VINA RESULT:    -7.371      1.970      4.790
REMARK INTER + INTRA:         -17.403
REMARK INTER:                 -16.353
REMARK INTRA:                  -1.051
REMARK UNBOUND:                -3.569
REMARK SMILES C[C@@H]1O[C@@H](OC[C@H]2O[C@@H](Oc3ccc(-c4oc5cc(O)cc(O)c5c(=O)c4O)cc3)[C@H](O)[C@@H](O)[C@@H]2O)[C@H](O[C@@H]2O[C@H](CO)[C@@H](O)[C@H](O)[C@H]2O)[C@H](O)[C@H]1O
REMARK SMILES IDX 5 1 4 2 2 3 3 4 52 5 50 6 37 7 1 8 53 9 51 11 38 13 39 14
REMARK SMILES IDX 40 15 48 16 41 17 46 18 44 19 49 20 42 22 43 23 47 25 45 27
REMARK SMILES IDX 6 29 7 30 8 31 35 32 9 33 33 34 31 35 36 36 10 38 11 39
REMARK SMILES IDX 12 40 30 41 13 42 29 43 14 44 15 45 16 46 27 47 17 48 25 49
REMARK SMILES IDX 18 50 24 51 26 52 19 53 22 54 21 55 28 56 20 58 23 60 34 62
REMARK SMILES IDX 32 64
REMARK H PARENT 53 10 51 12 49 21 43 24 47 26 45 28 36 37 28 57 20 59 23 61
REMARK H PARENT 34 63 32 65
ROOT
ATOM      1  O   UNL     1      18.890  22.004  15.746  1.00  0.00    -0.347 OA
ENDROOT
BRANCH   1   2
ATOM      2  C   UNL     1      17.768  22.591  15.077  1.00  0.00     0.282 C 
ATOM      3  C   UNL     1      15.911  22.084  16.468  1.00  0.00     0.150 C 
ATOM      4  O   UNL     1      16.849  23.078  16.062  1.00  0.00    -0.344 OA
ATOM      5  C   UNL     1      14.924  21.814  15.320  1.00  0.00     0.174 C 
ATOM      6  C   UNL     1      15.646  21.724  13.963  1.00  0.00     0.180 C 
ATOM      7  C   UNL     1      17.160  21.531  14.119  1.00  0.00     0.209 C 
ATOM      8  C   UNL     1      15.187  22.596  17.709  1.00  0.00     0.041 C 
BRANCH   5   9
ATOM      9  O   UNL     1      14.222  20.593  15.580  1.00  0.00    -0.388 OA
ATOM     10  H   UNL     1      13.432  20.595  15.008  1.00  0.00     0.211 HD
ENDBRANCH   5   9
BRANCH   6  11
ATOM     11  O   UNL     1      15.369  22.901  13.185  1.00  0.00    -0.387 OA
ATOM     12  H   UNL     1      14.397  23.030  13.241  1.00  0.00     0.211 HD
ENDBRANCH   6  11
BRANCH   7  13
ATOM     13  O   UNL     1      17.737  21.649  12.798  1.00  0.00    -0.338 OA
BRANCH  13  14
ATOM     14  C   UNL     1      18.956  22.397  12.776  1.00  0.00     0.282 C 
ATOM     15  O   UNL     1      18.917  23.416  11.783  1.00  0.00    -0.341 OA
ATOM     16  C   UNL     1      20.089  21.399  12.465  1.00  0.00     0.202 C 
ATOM     17  C   UNL     1      20.121  24.193  11.753  1.00  0.00     0.178 C 
ATOM     18  C   UNL     1      21.418  22.141  12.349  1.00  0.00     0.179 C 
ATOM     19  C   UNL     1      21.307  23.299  11.355  1.00  0.00     0.177 C 
BRANCH  16  20
ATOM     20  O   UNL     1      20.215  20.393  13.482  1.00  0.00    -0.385 OA
ATOM     21  H   UNL     1      21.106  20.002  13.352  1.00  0.00     0.211 HD
ENDBRANCH  16  20
BRANCH  17  22
ATOM     22  C   UNL     1      19.955  25.363  10.775  1.00  0.00     0.191 C 
BRANCH  22  23
ATOM     23  O   UNL     1      19.193  24.990   9.630  1.00  0.00    -0.394 OA
ATOM     24  H   UNL     1      19.786  24.456   9.060  1.00  0.00     0.210 HD
ENDBRANCH  22  23
ENDBRANCH  17  22
BRANCH  18  25
ATOM     25  O   UNL     1      22.453  21.245  11.912  1.00  0.00    -0.387 OA
ATOM     26  H   UNL     1      23.035  21.791  11.346  1.00  0.00     0.211 HD
ENDBRANCH  18  25
BRANCH  19  27
ATOM     27  O   UNL     1      22.536  24.035  11.340  1.00  0.00    -0.387 OA
ATOM     28  H   UNL     1      23.185  23.429  10.922  1.00  0.00     0.211 HD
ENDBRANCH  19  27
ENDBRANCH  13  14
ENDBRANCH   7  13
ENDBRANCH   1   2
BRANCH   1  29
ATOM     29  C   UNL     1      19.065  22.482  17.086  1.00  0.00     0.198 C 
BRANCH  29  30
ATOM     30  C   UNL     1      19.981  23.718  17.106  1.00  0.00     0.180 C 
ATOM     31  O   UNL     1      19.776  24.448  18.318  1.00  0.00    -0.332 OA
ATOM     32  C   UNL     1      21.463  23.316  17.056  1.00  0.00     0.177 C 
ATOM     33  C   UNL     1      20.313  25.778  18.256  1.00  0.00     0.339 C 
ATOM     34  C   UNL     1      22.373  24.490  17.491  1.00  0.00     0.180 C 
ATOM     35  C   UNL     1      21.650  25.849  17.468  1.00  0.00     0.214 C 
BRANCH  32  36
ATOM     36  O   UNL     1      21.803  22.880  15.738  1.00  0.00    -0.387 OA
ATOM     37  H   UNL     1      21.037  22.387  15.391  1.00  0.00     0.211 HD
ENDBRANCH  32  36
BRANCH  33  38
ATOM     38  O   UNL     1      20.584  26.238  19.597  1.00  0.00    -0.462 OA
BRANCH  38  39
ATOM     39  C   UNL     1      21.261  27.427  19.565  1.00  0.00     0.123 A 
ATOM     40  C   UNL     1      22.175  27.737  20.569  1.00  0.00     0.047 A 
ATOM     41  C   UNL     1      21.057  28.295  18.496  1.00  0.00     0.047 A 
ATOM     42  C   UNL     1      22.845  28.959  20.538  1.00  0.00     0.016 A 
ATOM     43  C   UNL     1      21.730  29.519  18.466  1.00  0.00     0.016 A 
ATOM     44  C   UNL     1      22.613  29.871  19.498  1.00  0.00     0.021 A 
BRANCH  44  45
ATOM     45  C   UNL     1      23.299  31.172  19.472  1.00  0.00     0.180 A 
ATOM     46  O   UNL     1      24.618  31.088  19.049  1.00  0.00    -0.452 OA
ATOM     47  C   UNL     1      22.681  32.317  19.813  1.00  0.00     0.208 A 
ATOM     48  C   UNL     1      25.366  32.239  18.996  1.00  0.00     0.146 A 
ATOM     49  C   UNL     1      23.458  33.576  19.766  1.00  0.00     0.238 A 
ATOM     50  C   UNL     1      26.692  32.110  18.580  1.00  0.00     0.094 A 
ATOM     51  C   UNL     1      24.856  33.491  19.335  1.00  0.00     0.111 A 
ATOM     52  O   UNL     1      22.932  34.640  20.083  1.00  0.00    -0.285 OA
ATOM     53  C   UNL     1      27.495  33.245  18.508  1.00  0.00     0.123 A 
ATOM     54  C   UNL     1      25.671  34.624  19.258  1.00  0.00     0.134 A 
ATOM     55  C   UNL     1      26.994  34.501  18.843  1.00  0.00     0.093 A 
BRANCH  47  56
ATOM     56  O   UNL     1      21.351  32.403  20.195  1.00  0.00    -0.502 OA
ATOM     57  H   UNL     1      21.042  33.254  19.807  1.00  0.00     0.293 HD
ENDBRANCH  47  56
BRANCH  53  58
ATOM     58  O   UNL     1      28.795  33.169  18.107  1.00  0.00    -0.508 OA
ATOM     59  H   UNL     1      29.242  34.011  18.298  1.00  0.00     0.293 HD
ENDBRANCH  53  58
BRANCH  54  60
ATOM     60  O   UNL     1      25.234  35.882  19.574  1.00  0.00    -0.507 OA
ATOM     61  H   UNL     1      24.531  36.140  18.940  1.00  0.00     0.293 HD
ENDBRANCH  54  60
ENDBRANCH  44  45
ENDBRANCH  38  39
ENDBRANCH  33  38
BRANCH  34  62
ATOM     62  O   UNL     1      22.910  24.231  18.795  1.00  0.00    -0.387 OA
ATOM     63  H   UNL     1      23.718  24.773  18.906  1.00  0.00     0.211 HD
ENDBRANCH  34  62
BRANCH  35  64
ATOM     64  O   UNL     1      21.388  26.248  16.112  1.00  0.00    -0.384 OA
ATOM     65  H   UNL     1      21.187  27.201  16.114  1.00  0.00     0.211 HD
ENDBRANCH  35  64
ENDBRANCH  29  30
ENDBRANCH   1  29
TORSDOF 21
ENDMDL
