MODEL 1
REMARK VINA RESULT:    -8.351      0.000      0.000
REMARK INTER + INTRA:         -12.517
REMARK INTER:                 -11.768
REMARK INTRA:                  -0.749
REMARK UNBOUND:                -0.749
REMARK SMILES C[C@H]([NH2+]Cc1ccc(OCc2cccc(F)c2)cc1)C(N)=O
REMARK SMILES IDX 5 1 6 2 7 3 8 4 18 5 19 6 4 7 3 8 2 11 1 12 20 13 21 14
REMARK SMILES IDX 22 15 9 18 10 19 11 20 12 21 17 22 13 23 15 24 14 25 16 26
REMARK H PARENT 3 9 3 10 21 16 21 17
ROOT
ATOM      1  C   UNL     1      21.111  28.018  18.040  1.00  0.00     0.006 A 
ATOM      2  C   UNL     1      22.364  28.400  17.543  1.00  0.00     0.013 A 
ATOM      3  C   UNL     1      23.119  29.367  18.210  1.00  0.00     0.047 A 
ATOM      4  C   UNL     1      22.642  29.975  19.373  1.00  0.00     0.119 A 
ATOM      5  C   UNL     1      21.394  29.604  19.867  1.00  0.00     0.047 A 
ATOM      6  C   UNL     1      20.631  28.635  19.204  1.00  0.00     0.013 A 
ENDROOT
BRANCH   1   7
ATOM      7  C   UNL     1      20.278  27.005  17.310  1.00  0.00     0.297 C 
BRANCH   7   8
ATOM      8  N   UNL     1      20.555  25.641  17.810  1.00  0.00    -0.333 N 
ATOM      9  H   UNL     1      21.216  25.669  18.597  1.00  0.00     0.347 HD
ATOM     10  H   UNL     1      19.696  25.258  18.248  1.00  0.00     0.347 HD
BRANCH   8  11
ATOM     11  C   UNL     1      20.991  24.612  16.785  1.00  0.00     0.269 C 
ATOM     12  C   UNL     1      21.398  25.333  15.511  1.00  0.00     0.086 C 
BRANCH  11  13
ATOM     13  C   UNL     1      22.141  23.795  17.399  1.00  0.00     0.275 C 
ATOM     14  N   UNL     1      23.324  24.408  17.650  1.00  0.00    -0.365 N 
ATOM     15  O   UNL     1      21.973  22.594  17.616  1.00  0.00    -0.268 OA
ATOM     16  H   UNL     1      24.078  23.842  18.031  1.00  0.00     0.159 HD
ATOM     17  H   UNL     1      23.554  25.369  17.428  1.00  0.00     0.159 HD
ENDBRANCH  11  13
ENDBRANCH   8  11
ENDBRANCH   7   8
ENDBRANCH   1   7
BRANCH   4  18
ATOM     18  O   UNL     1      23.495  30.889  19.921  1.00  0.00    -0.489 OA
BRANCH  18  19
ATOM     19  C   UNL     1      23.352  32.271  19.579  1.00  0.00     0.265 C 
BRANCH  19  20
ATOM     20  C   UNL     1      24.663  32.929  19.213  1.00  0.00    -0.008 A 
ATOM     21  C   UNL     1      25.655  32.229  18.507  1.00  0.00     0.007 A 
ATOM     22  C   UNL     1      24.887  34.276  19.531  1.00  0.00     0.046 A 
ATOM     23  C   UNL     1      26.854  32.851  18.152  1.00  0.00     0.003 A 
ATOM     24  C   UNL     1      26.086  34.886  19.174  1.00  0.00     0.123 A 
ATOM     25  C   UNL     1      27.072  34.186  18.490  1.00  0.00     0.039 A 
ATOM     26  F   UNL     1      26.292  36.168  19.499  1.00  0.00    -0.207 F 
ENDBRANCH  19  20
ENDBRANCH  18  19
ENDBRANCH   4  18
TORSDOF 7
ENDMDL
MODEL 2
REMARK VINA RESULT:    -7.948      3.377      4.233
REMARK INTER + INTRA:         -11.949
REMARK INTER:                 -11.245
REMARK INTRA:                  -0.704
REMARK UNBOUND:                -0.749
REMARK SMILES C[C@H]([NH2+]Cc1ccc(OCc2cccc(F)c2)cc1)C(N)=O
REMARK SMILES IDX 5 1 6 2 7 3 8 4 18 5 19 6 4 7 3 8 2 11 1 12 20 13 21 14
REMARK SMILES IDX 22 15 9 18 10 19 11 20 12 21 17 22 13 23 15 24 14 25 16 26
REMARK H PARENT 3 9 3 10 21 16 21 17
ROOT
ATOM      1  C   UNL     1      20.030  25.575  18.806  1.00  0.00     0.006 A 
ATOM      2  C   UNL     1      19.474  26.665  18.123  1.00  0.00     0.013 A 
ATOM      3  C   UNL     1      20.057  27.930  18.229  1.00  0.00     0.047 A 
ATOM      4  C   UNL     1      21.192  28.136  19.015  1.00  0.00     0.119 A 
ATOM      5  C   UNL     1      21.744  27.056  19.700  1.00  0.00     0.047 A 
ATOM      6  C   UNL     1      21.166  25.784  19.601  1.00  0.00     0.013 A 
ENDROOT
BRANCH   1   7
ATOM      7  C   UNL     1      19.390  24.219  18.727  1.00  0.00     0.297 C 
BRANCH   7   8
ATOM      8  N   UNL     1      19.048  23.883  17.327  1.00  0.00    -0.333 N 
ATOM      9  H   UNL     1      18.030  23.896  17.189  1.00  0.00     0.347 HD
ATOM     10  H   UNL     1      19.372  24.648  16.705  1.00  0.00     0.347 HD
BRANCH   8  11
ATOM     11  C   UNL     1      19.648  22.609  16.764  1.00  0.00     0.269 C 
ATOM     12  C   UNL     1      19.201  22.455  15.321  1.00  0.00     0.086 C 
BRANCH  11  13
ATOM     13  C   UNL     1      21.177  22.708  16.906  1.00  0.00     0.275 C 
ATOM     14  N   UNL     1      21.842  23.668  16.217  1.00  0.00    -0.365 N 
ATOM     15  O   UNL     1      21.766  21.892  17.615  1.00  0.00    -0.268 OA
ATOM     16  H   UNL     1      22.855  23.697  16.305  1.00  0.00     0.159 HD
ATOM     17  H   UNL     1      21.431  24.321  15.562  1.00  0.00     0.159 HD
ENDBRANCH  11  13
ENDBRANCH   8  11
ENDBRANCH   7   8
ENDBRANCH   1   7
BRANCH   4  18
ATOM     18  O   UNL     1      21.657  29.419  19.009  1.00  0.00    -0.489 OA
BRANCH  18  19
ATOM     19  C   UNL     1      23.069  29.650  19.024  1.00  0.00     0.265 C 
BRANCH  19  20
ATOM     20  C   UNL     1      23.702  29.538  17.656  1.00  0.00    -0.008 A 
ATOM     21  C   UNL     1      24.411  30.611  17.094  1.00  0.00     0.007 A 
ATOM     22  C   UNL     1      23.633  28.331  16.945  1.00  0.00     0.046 A 
ATOM     23  C   UNL     1      25.014  30.492  15.839  1.00  0.00     0.003 A 
ATOM     24  C   UNL     1      24.235  28.223  15.695  1.00  0.00     0.123 A 
ATOM     25  C   UNL     1      24.922  29.292  15.135  1.00  0.00     0.039 A 
ATOM     26  F   UNL     1      24.146  27.070  15.022  1.00  0.00    -0.207 F 
ENDBRANCH  19  20
ENDBRANCH  18  19
ENDBRANCH   4  18
TORSDOF 7
ENDMDL
MODEL 3
REMARK VINA RESULT:    -7.906      3.234      6.942
REMARK INTER + INTRA:         -11.891
REMARK INTER:                 -10.715
REMARK INTRA:                  -1.175
REMARK UNBOUND:                -0.749
REMARK SMILES C[C@H]([NH2+]Cc1ccc(OCc2cccc(F)c2)cc1)C(N)=O
REMARK SMILES IDX 5 1 6 2 7 3 8 4 18 5 19 6 4 7 3 8 2 11 1 12 20 13 21 14
REMARK SMILES IDX 22 15 9 18 10 19 11 20 12 21 17 22 13 23 15 24 14 25 16 26
REMARK H PARENT 3 9 3 10 21 16 21 17
ROOT
ATOM      1  C   UNL     1      21.272  29.225  20.041  1.00  0.00     0.006 A 
ATOM      2  C   UNL     1      22.157  28.361  20.698  1.00  0.00     0.013 A 
ATOM      3  C   UNL     1      22.223  27.014  20.334  1.00  0.00     0.047 A 
ATOM      4  C   UNL     1      21.410  26.503  19.320  1.00  0.00     0.119 A 
ATOM      5  C   UNL     1      20.525  27.357  18.669  1.00  0.00     0.047 A 
ATOM      6  C   UNL     1      20.452  28.708  19.028  1.00  0.00     0.013 A 
ENDROOT
BRANCH   1   7
ATOM      7  C   UNL     1      21.168  30.666  20.450  1.00  0.00     0.297 C 
BRANCH   7   8
ATOM      8  N   UNL     1      22.512  31.271  20.579  1.00  0.00    -0.333 N 
ATOM      9  H   UNL     1      22.598  31.780  21.468  1.00  0.00     0.347 HD
ATOM     10  H   UNL     1      23.216  30.515  20.681  1.00  0.00     0.347 HD
BRANCH   8  11
ATOM     11  C   UNL     1      22.990  32.129  19.424  1.00  0.00     0.269 C 
ATOM     12  C   UNL     1      23.272  33.529  19.939  1.00  0.00     0.086 C 
BRANCH  11  13
ATOM     13  C   UNL     1      24.236  31.454  18.823  1.00  0.00     0.275 C 
ATOM     14  N   UNL     1      24.085  30.319  18.097  1.00  0.00    -0.365 N 
ATOM     15  O   UNL     1      25.346  31.940  19.045  1.00  0.00    -0.268 OA
ATOM     16  H   UNL     1      24.925  29.876  17.732  1.00  0.00     0.159 HD
ATOM     17  H   UNL     1      23.215  29.826  17.939  1.00  0.00     0.159 HD
ENDBRANCH  11  13
ENDBRANCH   8  11
ENDBRANCH   7   8
ENDBRANCH   1   7
BRANCH   4  18
ATOM     18  O   UNL     1      21.597  25.175  19.065  1.00  0.00    -0.489 OA
BRANCH  18  19
ATOM     19  C   UNL     1      22.766  24.758  18.352  1.00  0.00     0.265 C 
BRANCH  19  20
ATOM     20  C   UNL     1      23.026  25.579  17.110  1.00  0.00    -0.008 A 
ATOM     21  C   UNL     1      22.205  25.461  15.977  1.00  0.00     0.007 A 
ATOM     22  C   UNL     1      24.070  26.515  17.090  1.00  0.00     0.046 A 
ATOM     23  C   UNL     1      22.437  26.241  14.841  1.00  0.00     0.003 A 
ATOM     24  C   UNL     1      24.294  27.284  15.952  1.00  0.00     0.123 A 
ATOM     25  C   UNL     1      23.490  27.154  14.827  1.00  0.00     0.039 A 
ATOM     26  F   UNL     1      25.305  28.161  15.943  1.00  0.00    -0.207 F 
ENDBRANCH  19  20
ENDBRANCH  18  19
ENDBRANCH   4  18
TORSDOF 7
ENDMDL
MODEL 4
REMARK VINA RESULT:    -7.889      4.080      7.733
REMARK INTER + INTRA:         -11.866
REMARK INTER:                 -11.160
REMARK INTRA:                  -0.706
REMARK UNBOUND:                -0.749
REMARK SMILES C[C@H]([NH2+]Cc1ccc(OCc2cccc(F)c2)cc1)C(N)=O
REMARK SMILES IDX 5 1 6 2 7 3 8 4 18 5 19 6 4 7 3 8 2 11 1 12 20 13 21 14
REMARK SMILES IDX 22 15 9 18 10 19 11 20 12 21 17 22 13 23 15 24 14 25 16 26
REMARK H PARENT 3 9 3 10 21 16 21 17
ROOT
ATOM      1  C   UNL     1      22.847  32.538  19.826  1.00  0.00     0.006 A 
ATOM      2  C   UNL     1      23.713  31.574  19.293  1.00  0.00     0.013 A 
ATOM      3  C   UNL     1      23.342  30.228  19.282  1.00  0.00     0.047 A 
ATOM      4  C   UNL     1      22.114  29.816  19.804  1.00  0.00     0.119 A 
ATOM      5  C   UNL     1      21.253  30.771  20.340  1.00  0.00     0.047 A 
ATOM      6  C   UNL     1      21.618  32.123  20.355  1.00  0.00     0.013 A 
ENDROOT
BRANCH   1   7
ATOM      7  C   UNL     1      23.253  33.983  19.875  1.00  0.00     0.297 C 
BRANCH   7   8
ATOM      8  N   UNL     1      24.714  34.109  20.074  1.00  0.00    -0.333 N 
ATOM      9  H   UNL     1      24.920  34.653  20.921  1.00  0.00     0.347 HD
ATOM     10  H   UNL     1      25.108  33.176  20.301  1.00  0.00     0.347 HD
BRANCH   8  11
ATOM     11  C   UNL     1      25.522  34.624  18.899  1.00  0.00     0.269 C 
ATOM     12  C   UNL     1      25.889  36.075  19.157  1.00  0.00     0.086 C 
BRANCH  11  13
ATOM     13  C   UNL     1      26.756  33.717  18.746  1.00  0.00     0.275 C 
ATOM     14  N   UNL     1      27.554  33.869  17.660  1.00  0.00    -0.365 N 
ATOM     15  O   UNL     1      26.972  32.850  19.593  1.00  0.00    -0.268 OA
ATOM     16  H   UNL     1      28.349  33.240  17.565  1.00  0.00     0.159 HD
ATOM     17  H   UNL     1      27.395  34.508  16.890  1.00  0.00     0.159 HD
ENDBRANCH  11  13
ENDBRANCH   8  11
ENDBRANCH   7   8
ENDBRANCH   1   7
BRANCH   4  18
ATOM     18  O   UNL     1      21.883  28.474  19.709  1.00  0.00    -0.489 OA
BRANCH  18  19
ATOM     19  C   UNL     1      21.206  27.961  18.558  1.00  0.00     0.265 C 
BRANCH  19  20
ATOM     20  C   UNL     1      22.150  27.544  17.453  1.00  0.00    -0.008 A 
ATOM     21  C   UNL     1      22.711  26.256  17.425  1.00  0.00     0.007 A 
ATOM     22  C   UNL     1      22.440  28.427  16.404  1.00  0.00     0.046 A 
ATOM     23  C   UNL     1      23.563  25.870  16.387  1.00  0.00     0.003 A 
ATOM     24  C   UNL     1      23.293  28.034  15.377  1.00  0.00     0.123 A 
ATOM     25  C   UNL     1      23.858  26.765  15.360  1.00  0.00     0.039 A 
ATOM     26  F   UNL     1      23.573  28.894  14.391  1.00  0.00    -0.207 F 
ENDBRANCH  19  20
ENDBRANCH  18  19
ENDBRANCH   4  18
TORSDOF 7
ENDMDL
MODEL 5
REMARK VINA RESULT:    -7.846      1.290      1.937
REMARK INTER + INTRA:         -11.805
REMARK INTER:                 -11.066
REMARK INTRA:                  -0.739
REMARK UNBOUND:                -0.749
REMARK SMILES C[C@H]([NH2+]Cc1ccc(OCc2cccc(F)c2)cc1)C(N)=O
REMARK SMILES IDX 5 1 6 2 7 3 8 4 18 5 19 6 4 7 3 8 2 11 1 12 20 13 21 14
REMARK SMILES IDX 22 15 9 18 10 19 11 20 12 21 17 22 13 23 15 24 14 25 16 26
REMARK H PARENT 3 9 3 10 21 16 21 17
ROOT
ATOM      1  C   UNL     1      21.195  27.819  17.485  1.00  0.00     0.006 A 
ATOM      2  C   UNL     1      21.522  28.463  18.686  1.00  0.00     0.013 A 
ATOM      3  C   UNL     1      22.589  29.363  18.731  1.00  0.00     0.047 A 
ATOM      4  C   UNL     1      23.351  29.633  17.593  1.00  0.00     0.119 A 
ATOM      5  C   UNL     1      23.033  28.990  16.399  1.00  0.00     0.047 A 
ATOM      6  C   UNL     1      21.966  28.086  16.345  1.00  0.00     0.013 A 
ENDROOT
BRANCH   1   7
ATOM      7  C   UNL     1      20.074  26.823  17.436  1.00  0.00     0.297 C 
BRANCH   7   8
ATOM      8  N   UNL     1      20.459  25.567  18.117  1.00  0.00    -0.333 N 
ATOM      9  H   UNL     1      21.340  25.688  18.633  1.00  0.00     0.347 HD
ATOM     10  H   UNL     1      19.777  25.370  18.875  1.00  0.00     0.347 HD
BRANCH   8  11
ATOM     11  C   UNL     1      20.505  24.313  17.267  1.00  0.00     0.269 C 
ATOM     12  C   UNL     1      20.088  24.668  15.850  1.00  0.00     0.086 C 
BRANCH  11  13
ATOM     13  C   UNL     1      21.935  23.749  17.341  1.00  0.00     0.275 C 
ATOM     14  N   UNL     1      22.984  24.578  17.111  1.00  0.00    -0.365 N 
ATOM     15  O   UNL     1      22.095  22.550  17.573  1.00  0.00    -0.268 OA
ATOM     16  H   UNL     1      23.918  24.177  17.139  1.00  0.00     0.159 HD
ATOM     17  H   UNL     1      22.923  25.552  16.843  1.00  0.00     0.159 HD
ENDBRANCH  11  13
ENDBRANCH   8  11
ENDBRANCH   7   8
ENDBRANCH   1   7
BRANCH   4  18
ATOM     18  O   UNL     1      24.349  30.544  17.786  1.00  0.00    -0.489 OA
BRANCH  18  19
ATOM     19  C   UNL     1      24.420  31.248  19.030  1.00  0.00     0.265 C 
BRANCH  19  20
ATOM     20  C   UNL     1      25.293  32.481  18.963  1.00  0.00    -0.008 A 
ATOM     21  C   UNL     1      24.814  33.733  19.384  1.00  0.00     0.007 A 
ATOM     22  C   UNL     1      26.621  32.382  18.524  1.00  0.00     0.046 A 
ATOM     23  C   UNL     1      25.634  34.863  19.342  1.00  0.00     0.003 A 
ATOM     24  C   UNL     1      27.428  33.514  18.484  1.00  0.00     0.123 A 
ATOM     25  C   UNL     1      26.947  34.754  18.886  1.00  0.00     0.039 A 
ATOM     26  F   UNL     1      28.688  33.406  18.048  1.00  0.00    -0.207 F 
ENDBRANCH  19  20
ENDBRANCH  18  19
ENDBRANCH   4  18
TORSDOF 7
ENDMDL
MODEL 6
REMARK VINA RESULT:    -7.685      4.676      9.139
REMARK INTER + INTRA:         -11.579
REMARK INTER:                 -10.915
REMARK INTRA:                  -0.665
REMARK UNBOUND:                -0.749
REMARK SMILES C[C@H]([NH2+]Cc1ccc(OCc2cccc(F)c2)cc1)C(N)=O
REMARK SMILES IDX 5 1 6 2 7 3 8 4 18 5 19 6 4 7 3 8 2 11 1 12 20 13 21 14
REMARK SMILES IDX 22 15 9 18 10 19 11 20 12 21 17 22 13 23 15 24 14 25 16 26
REMARK H PARENT 3 9 3 10 21 16 21 17
ROOT
ATOM      1  C   UNL     1      24.780  30.631  17.320  1.00  0.00     0.006 A 
ATOM      2  C   UNL     1      24.717  29.775  16.213  1.00  0.00     0.013 A 
ATOM      3  C   UNL     1      23.745  28.774  16.155  1.00  0.00     0.047 A 
ATOM      4  C   UNL     1      22.827  28.602  17.193  1.00  0.00     0.119 A 
ATOM      5  C   UNL     1      22.891  29.447  18.298  1.00  0.00     0.047 A 
ATOM      6  C   UNL     1      23.863  30.453  18.365  1.00  0.00     0.013 A 
ENDROOT
BRANCH   1   7
ATOM      7  C   UNL     1      25.845  31.686  17.408  1.00  0.00     0.297 C 
BRANCH   7   8
ATOM      8  N   UNL     1      26.064  32.094  18.814  1.00  0.00    -0.333 N 
ATOM      9  H   UNL     1      25.195  32.009  19.356  1.00  0.00     0.347 HD
ATOM     10  H   UNL     1      26.687  31.403  19.274  1.00  0.00     0.347 HD
BRANCH   8  11
ATOM     11  C   UNL     1      26.706  33.448  19.041  1.00  0.00     0.269 C 
ATOM     12  C   UNL     1      27.409  33.876  17.765  1.00  0.00     0.086 C 
BRANCH  11  13
ATOM     13  C   UNL     1      25.598  34.427  19.467  1.00  0.00     0.275 C 
ATOM     14  N   UNL     1      25.858  35.758  19.467  1.00  0.00    -0.365 N 
ATOM     15  O   UNL     1      24.510  33.979  19.833  1.00  0.00    -0.268 OA
ATOM     16  H   UNL     1      25.119  36.384  19.778  1.00  0.00     0.159 HD
ATOM     17  H   UNL     1      26.749  36.188  19.251  1.00  0.00     0.159 HD
ENDBRANCH  11  13
ENDBRANCH   8  11
ENDBRANCH   7   8
ENDBRANCH   1   7
BRANCH   4  18
ATOM     18  O   UNL     1      21.928  27.596  16.989  1.00  0.00    -0.489 OA
BRANCH  18  19
ATOM     19  C   UNL     1      22.408  26.275  16.721  1.00  0.00     0.265 C 
BRANCH  19  20
ATOM     20  C   UNL     1      21.578  25.541  15.692  1.00  0.00    -0.008 A 
ATOM     21  C   UNL     1      20.381  24.900  16.048  1.00  0.00     0.007 A 
ATOM     22  C   UNL     1      21.971  25.534  14.346  1.00  0.00     0.046 A 
ATOM     23  C   UNL     1      19.608  24.244  15.087  1.00  0.00     0.003 A 
ATOM     24  C   UNL     1      21.194  24.876  13.397  1.00  0.00     0.123 A 
ATOM     25  C   UNL     1      20.019  24.229  13.755  1.00  0.00     0.039 A 
ATOM     26  F   UNL     1      21.591  24.865  12.119  1.00  0.00    -0.207 F 
ENDBRANCH  19  20
ENDBRANCH  18  19
ENDBRANCH   4  18
TORSDOF 7
ENDMDL
MODEL 7
REMARK VINA RESULT:    -7.589      4.468      8.863
REMARK INTER + INTRA:         -11.444
REMARK INTER:                 -10.679
REMARK INTRA:                  -0.764
REMARK UNBOUND:                -0.749
REMARK SMILES C[C@H]([NH2+]Cc1ccc(OCc2cccc(F)c2)cc1)C(N)=O
REMARK SMILES IDX 5 1 6 2 7 3 8 4 18 5 19 6 4 7 3 8 2 11 1 12 20 13 21 14
REMARK SMILES IDX 22 15 9 18 10 19 11 20 12 21 17 22 13 23 15 24 14 25 16 26
REMARK H PARENT 3 9 3 10 21 16 21 17
ROOT
ATOM      1  C   UNL     1      24.425  30.840  18.087  1.00  0.00     0.006 A 
ATOM      2  C   UNL     1      23.631  30.991  19.231  1.00  0.00     0.013 A 
ATOM      3  C   UNL     1      22.540  30.145  19.445  1.00  0.00     0.047 A 
ATOM      4  C   UNL     1      22.216  29.144  18.527  1.00  0.00     0.119 A 
ATOM      5  C   UNL     1      22.998  28.995  17.385  1.00  0.00     0.047 A 
ATOM      6  C   UNL     1      24.094  29.839  17.163  1.00  0.00     0.013 A 
ENDROOT
BRANCH   1   7
ATOM      7  C   UNL     1      25.577  31.767  17.831  1.00  0.00     0.297 C 
BRANCH   7   8
ATOM      8  N   UNL     1      26.073  32.348  19.099  1.00  0.00    -0.333 N 
ATOM      9  H   UNL     1      25.349  32.303  19.827  1.00  0.00     0.347 HD
ATOM     10  H   UNL     1      26.819  31.737  19.482  1.00  0.00     0.347 HD
BRANCH   8  11
ATOM     11  C   UNL     1      26.672  33.738  19.026  1.00  0.00     0.269 C 
ATOM     12  C   UNL     1      27.386  33.894  17.694  1.00  0.00     0.086 C 
BRANCH  11  13
ATOM     13  C   UNL     1      25.529  34.752  19.210  1.00  0.00     0.275 C 
ATOM     14  N   UNL     1      24.433  34.388  19.921  1.00  0.00    -0.365 N 
ATOM     15  O   UNL     1      25.619  35.859  18.678  1.00  0.00    -0.268 OA
ATOM     16  H   UNL     1      23.679  35.064  20.007  1.00  0.00     0.159 HD
ATOM     17  H   UNL     1      24.262  33.473  20.321  1.00  0.00     0.159 HD
ENDBRANCH  11  13
ENDBRANCH   8  11
ENDBRANCH   7   8
ENDBRANCH   1   7
BRANCH   4  18
ATOM     18  O   UNL     1      21.135  28.387  18.877  1.00  0.00    -0.489 OA
BRANCH  18  19
ATOM     19  C   UNL     1      21.338  27.040  19.313  1.00  0.00     0.265 C 
BRANCH  19  20
ATOM     20  C   UNL     1      21.123  26.023  18.215  1.00  0.00    -0.008 A 
ATOM     21  C   UNL     1      20.343  26.327  17.087  1.00  0.00     0.007 A 
ATOM     22  C   UNL     1      21.748  24.770  18.283  1.00  0.00     0.046 A 
ATOM     23  C   UNL     1      20.169  25.390  16.065  1.00  0.00     0.003 A 
ATOM     24  C   UNL     1      21.566  23.844  17.261  1.00  0.00     0.123 A 
ATOM     25  C   UNL     1      20.781  24.141  16.155  1.00  0.00     0.039 A 
ATOM     26  F   UNL     1      22.157  22.646  17.349  1.00  0.00    -0.207 F 
ENDBRANCH  19  20
ENDBRANCH  18  19
ENDBRANCH   4  18
TORSDOF 7
ENDMDL
MODEL 8
REMARK VINA RESULT:    -7.551      3.676      5.348
REMARK INTER + INTRA:         -11.390
REMARK INTER:                 -10.850
REMARK INTRA:                  -0.540
REMARK UNBOUND:                -0.749
REMARK SMILES C[C@H]([NH2+]Cc1ccc(OCc2cccc(F)c2)cc1)C(N)=O
REMARK SMILES IDX 5 1 6 2 7 3 8 4 18 5 19 6 4 7 3 8 2 11 1 12 20 13 21 14
REMARK SMILES IDX 22 15 9 18 10 19 11 20 12 21 17 22 13 23 15 24 14 25 16 26
REMARK H PARENT 3 9 3 10 21 16 21 17
ROOT
ATOM      1  C   UNL     1      21.008  25.006  14.849  1.00  0.00     0.006 A 
ATOM      2  C   UNL     1      22.196  25.749  14.878  1.00  0.00     0.013 A 
ATOM      3  C   UNL     1      22.499  26.545  15.985  1.00  0.00     0.047 A 
ATOM      4  C   UNL     1      21.630  26.622  17.075  1.00  0.00     0.119 A 
ATOM      5  C   UNL     1      20.445  25.890  17.047  1.00  0.00     0.047 A 
ATOM      6  C   UNL     1      20.133  25.090  15.941  1.00  0.00     0.013 A 
ENDROOT
BRANCH   1   7
ATOM      7  C   UNL     1      20.657  24.177  13.648  1.00  0.00     0.297 C 
BRANCH   7   8
ATOM      8  N   UNL     1      21.251  24.755  12.422  1.00  0.00    -0.333 N 
ATOM      9  H   UNL     1      21.225  25.782  12.455  1.00  0.00     0.347 HD
ATOM     10  H   UNL     1      22.269  24.553  12.410  1.00  0.00     0.347 HD
BRANCH   8  11
ATOM     11  C   UNL     1      20.713  24.248  11.098  1.00  0.00     0.269 C 
ATOM     12  C   UNL     1      19.989  25.385  10.398  1.00  0.00     0.086 C 
BRANCH  11  13
ATOM     13  C   UNL     1      21.903  23.710  10.284  1.00  0.00     0.275 C 
ATOM     14  N   UNL     1      22.939  23.127  10.937  1.00  0.00    -0.365 N 
ATOM     15  O   UNL     1      21.906  23.853   9.061  1.00  0.00    -0.268 OA
ATOM     16  H   UNL     1      23.726  22.803  10.380  1.00  0.00     0.159 HD
ATOM     17  H   UNL     1      23.036  23.044  11.941  1.00  0.00     0.159 HD
ENDBRANCH  11  13
ENDBRANCH   8  11
ENDBRANCH   7   8
ENDBRANCH   1   7
BRANCH   4  18
ATOM     18  O   UNL     1      22.066  27.426  18.088  1.00  0.00    -0.489 OA
BRANCH  18  19
ATOM     19  C   UNL     1      21.106  28.069  18.932  1.00  0.00     0.265 C 
BRANCH  19  20
ATOM     20  C   UNL     1      21.540  29.445  19.382  1.00  0.00    -0.008 A 
ATOM     21  C   UNL     1      20.692  30.258  20.152  1.00  0.00     0.007 A 
ATOM     22  C   UNL     1      22.826  29.914  19.076  1.00  0.00     0.046 A 
ATOM     23  C   UNL     1      21.109  31.520  20.584  1.00  0.00     0.003 A 
ATOM     24  C   UNL     1      23.230  31.173  19.509  1.00  0.00     0.123 A 
ATOM     25  C   UNL     1      22.383  31.980  20.257  1.00  0.00     0.039 A 
ATOM     26  F   UNL     1      24.455  31.612  19.195  1.00  0.00    -0.207 F 
ENDBRANCH  19  20
ENDBRANCH  18  19
ENDBRANCH   4  18
TORSDOF 7
ENDMDL
MODEL 9
REMARK VINA RESULT:    -7.437      3.537      4.899
REMARK INTER + INTRA:         -11.229
REMARK INTER:                 -10.224
REMARK INTRA:                  -1.004
REMARK UNBOUND:                -0.749
REMARK SMILES C[C@H]([NH2+]Cc1ccc(OCc2cccc(F)c2)cc1)C(N)=O
REMARK SMILES IDX 5 1 6 2 7 3 8 4 18 5 19 6 4 7 3 8 2 11 1 12 20 13 21 14
REMARK SMILES IDX 22 15 9 18 10 19 11 20 12 21 17 22 13 23 15 24 14 25 16 26
REMARK H PARENT 3 9 3 10 21 16 21 17
ROOT
ATOM      1  C   UNL     1      20.854  23.661  17.473  1.00  0.00     0.006 A 
ATOM      2  C   UNL     1      22.170  24.060  17.742  1.00  0.00     0.013 A 
ATOM      3  C   UNL     1      22.414  25.187  18.530  1.00  0.00     0.047 A 
ATOM      4  C   UNL     1      21.361  25.938  19.057  1.00  0.00     0.119 A 
ATOM      5  C   UNL     1      20.052  25.549  18.786  1.00  0.00     0.047 A 
ATOM      6  C   UNL     1      19.798  24.421  17.996  1.00  0.00     0.013 A 
ENDROOT
BRANCH   1   7
ATOM      7  C   UNL     1      20.582  22.473  16.597  1.00  0.00     0.297 C 
BRANCH   7   8
ATOM      8  N   UNL     1      21.501  22.457  15.437  1.00  0.00    -0.333 N 
ATOM      9  H   UNL     1      22.355  22.991  15.642  1.00  0.00     0.347 HD
ATOM     10  H   UNL     1      21.862  21.493  15.303  1.00  0.00     0.347 HD
BRANCH   8  11
ATOM     11  C   UNL     1      20.920  22.871  14.099  1.00  0.00     0.269 C 
ATOM     12  C   UNL     1      19.405  22.857  14.198  1.00  0.00     0.086 C 
BRANCH  11  13
ATOM     13  C   UNL     1      21.481  24.262  13.755  1.00  0.00     0.275 C 
ATOM     14  N   UNL     1      22.620  24.681  14.359  1.00  0.00    -0.365 N 
ATOM     15  O   UNL     1      20.864  24.978  12.965  1.00  0.00    -0.268 OA
ATOM     16  H   UNL     1      22.958  25.615  14.136  1.00  0.00     0.159 HD
ATOM     17  H   UNL     1      23.136  24.177  15.070  1.00  0.00     0.159 HD
ENDBRANCH  11  13
ENDBRANCH   8  11
ENDBRANCH   7   8
ENDBRANCH   1   7
BRANCH   4  18
ATOM     18  O   UNL     1      21.753  27.001  19.819  1.00  0.00    -0.489 OA
BRANCH  18  19
ATOM     19  C   UNL     1      21.356  28.320  19.434  1.00  0.00     0.265 C 
BRANCH  19  20
ATOM     20  C   UNL     1      22.282  28.944  18.414  1.00  0.00    -0.008 A 
ATOM     21  C   UNL     1      23.239  29.899  18.791  1.00  0.00     0.007 A 
ATOM     22  C   UNL     1      22.232  28.534  17.074  1.00  0.00     0.046 A 
ATOM     23  C   UNL     1      24.107  30.453  17.846  1.00  0.00     0.003 A 
ATOM     24  C   UNL     1      23.099  29.094  16.141  1.00  0.00     0.123 A 
ATOM     25  C   UNL     1      24.034  30.051  16.514  1.00  0.00     0.039 A 
ATOM     26  F   UNL     1      23.028  28.704  14.863  1.00  0.00    -0.207 F 
ENDBRANCH  19  20
ENDBRANCH  18  19
ENDBRANCH   4  18
TORSDOF 7
ENDMDL
