MODEL 1
REMARK VINA RESULT:    -7.396      0.000      0.000
REMARK INTER + INTRA:         -12.150
REMARK INTER:                 -10.638
REMARK INTRA:                  -1.512
REMARK UNBOUND:                -1.512
REMARK SMILES O=c1c(O[C@@H]2O[C@H](CO)[C@@H](O)[C@H](O)[C@H]2O)c(-c2ccc(O)cc2)oc2cc(O)cc(O)c12
REMARK SMILES IDX 4 1 3 2 1 3 2 4 32 5 16 6 30 7 25 8 24 9 29 10 26 11 27 12
REMARK SMILES IDX 17 13 18 14 23 15 19 16 22 17 20 18 21 19 31 21 28 23 5 25
REMARK SMILES IDX 6 26 14 27 7 28 12 29 10 30 15 31 8 33 9 34 13 36 11 38
REMARK H PARENT 21 20 31 22 28 24 15 32 9 35 13 37 11 39
ROOT
ATOM      1  O   UNL     1      19.660  24.747  15.642  1.00  0.00    -0.454 OA
ENDROOT
BRANCH   1   2
ATOM      2  C   UNL     1      20.768  25.569  15.552  1.00  0.00     0.214 A 
ATOM      3  O   UNL     1      20.288  26.460  17.664  1.00  0.00    -0.285 OA
ATOM      4  C   UNL     1      21.025  26.499  16.684  1.00  0.00     0.239 A 
ATOM      5  C   UNL     1      22.184  27.409  16.547  1.00  0.00     0.111 A 
ATOM      6  C   UNL     1      21.585  25.598  14.484  1.00  0.00     0.180 A 
ATOM      7  C   UNL     1      22.539  28.352  17.521  1.00  0.00     0.134 A 
ATOM      8  C   UNL     1      22.957  27.308  15.387  1.00  0.00     0.146 A 
ATOM      9  O   UNL     1      22.694  26.419  14.377  1.00  0.00    -0.452 OA
ATOM     10  C   UNL     1      23.649  29.178  17.333  1.00  0.00     0.093 A 
ATOM     11  C   UNL     1      24.070  28.133  15.195  1.00  0.00     0.094 A 
ATOM     12  C   UNL     1      24.404  29.060  16.172  1.00  0.00     0.123 A 
BRANCH   6  13
ATOM     13  C   UNL     1      21.412  24.702  13.323  1.00  0.00     0.021 A 
ATOM     14  C   UNL     1      22.129  23.501  13.207  1.00  0.00     0.016 A 
ATOM     15  C   UNL     1      20.503  25.043  12.309  1.00  0.00     0.016 A 
ATOM     16  C   UNL     1      21.957  22.668  12.097  1.00  0.00     0.047 A 
ATOM     17  C   UNL     1      20.328  24.212  11.202  1.00  0.00     0.047 A 
ATOM     18  C   UNL     1      21.058  23.034  11.103  1.00  0.00     0.115 A 
BRANCH  18  19
ATOM     19  O   UNL     1      20.860  22.255  10.002  1.00  0.00    -0.508 OA
ATOM     20  H   UNL     1      21.247  21.379  10.167  1.00  0.00     0.293 HD
ENDBRANCH  18  19
ENDBRANCH   6  13
BRANCH   7  21
ATOM     21  O   UNL     1      21.809  28.483  18.668  1.00  0.00    -0.507 OA
ATOM     22  H   UNL     1      20.859  28.470  18.464  1.00  0.00     0.293 HD
ENDBRANCH   7  21
BRANCH  12  23
ATOM     23  O   UNL     1      25.479  29.887  16.031  1.00  0.00    -0.508 OA
ATOM     24  H   UNL     1      25.176  30.810  16.022  1.00  0.00     0.293 HD
ENDBRANCH  12  23
ENDBRANCH   1   2
BRANCH   1  25
ATOM     25  C   UNL     1      20.009  23.436  16.123  1.00  0.00     0.339 C 
ATOM     26  O   UNL     1      19.683  22.501  15.099  1.00  0.00    -0.332 OA
ATOM     27  C   UNL     1      19.150  23.162  17.380  1.00  0.00     0.214 C 
ATOM     28  C   UNL     1      20.091  21.153  15.409  1.00  0.00     0.179 C 
ATOM     29  C   UNL     1      19.006  21.652  17.662  1.00  0.00     0.180 C 
ATOM     30  C   UNL     1      20.065  20.828  16.918  1.00  0.00     0.177 C 
BRANCH  27  31
ATOM     31  O   UNL     1      19.702  23.787  18.553  1.00  0.00    -0.384 OA
ATOM     32  H   UNL     1      19.359  24.710  18.600  1.00  0.00     0.211 HD
ENDBRANCH  27  31
BRANCH  28  33
ATOM     33  C   UNL     1      19.160  20.239  14.603  1.00  0.00     0.191 C 
BRANCH  33  34
ATOM     34  O   UNL     1      17.920  20.912  14.362  1.00  0.00    -0.394 OA
ATOM     35  H   UNL     1      17.234  20.358  14.786  1.00  0.00     0.210 HD
ENDBRANCH  33  34
ENDBRANCH  28  33
BRANCH  29  36
ATOM     36  O   UNL     1      17.702  21.181  17.309  1.00  0.00    -0.387 OA
ATOM     37  H   UNL     1      17.814  20.290  16.930  1.00  0.00     0.211 HD
ENDBRANCH  29  36
BRANCH  30  38
ATOM     38  O   UNL     1      21.365  21.125  17.456  1.00  0.00    -0.387 OA
ATOM     39  H   UNL     1      21.654  20.360  17.985  1.00  0.00     0.211 HD
ENDBRANCH  30  38
ENDBRANCH   1  25
TORSDOF 11
ENDMDL
MODEL 2
REMARK VINA RESULT:    -7.259      2.682      8.228
REMARK INTER + INTRA:         -11.954
REMARK INTER:                 -10.730
REMARK INTRA:                  -1.224
REMARK UNBOUND:                -1.512
REMARK SMILES O=c1c(O[C@@H]2O[C@H](CO)[C@@H](O)[C@H](O)[C@H]2O)c(-c2ccc(O)cc2)oc2cc(O)cc(O)c12
REMARK SMILES IDX 4 1 3 2 1 3 2 4 32 5 16 6 30 7 25 8 24 9 29 10 26 11 27 12
REMARK SMILES IDX 17 13 18 14 23 15 19 16 22 17 20 18 21 19 31 21 28 23 5 25
REMARK SMILES IDX 6 26 14 27 7 28 12 29 10 30 15 31 8 33 9 34 13 36 11 38
REMARK H PARENT 21 20 31 22 28 24 15 32 9 35 13 37 11 39
ROOT
ATOM      1  O   UNL     1      20.894  27.329  16.198  1.00  0.00    -0.454 OA
ENDROOT
BRANCH   1   2
ATOM      2  C   UNL     1      20.378  26.296  16.958  1.00  0.00     0.214 A 
ATOM      3  O   UNL     1      20.038  25.028  15.018  1.00  0.00    -0.285 OA
ATOM      4  C   UNL     1      19.902  25.085  16.236  1.00  0.00     0.239 A 
ATOM      5  C   UNL     1      19.304  24.011  17.061  1.00  0.00     0.111 A 
ATOM      6  C   UNL     1      20.246  26.353  18.295  1.00  0.00     0.180 A 
ATOM      7  C   UNL     1      18.796  22.822  16.521  1.00  0.00     0.134 A 
ATOM      8  C   UNL     1      19.256  24.204  18.444  1.00  0.00     0.146 A 
ATOM      9  O   UNL     1      19.727  25.330  19.068  1.00  0.00    -0.452 OA
ATOM     10  C   UNL     1      18.249  21.845  17.355  1.00  0.00     0.093 A 
ATOM     11  C   UNL     1      18.710  23.228  19.283  1.00  0.00     0.094 A 
ATOM     12  C   UNL     1      18.211  22.057  18.729  1.00  0.00     0.123 A 
BRANCH   6  13
ATOM     13  C   UNL     1      20.703  27.509  19.093  1.00  0.00     0.021 A 
ATOM     14  C   UNL     1      21.805  27.418  19.958  1.00  0.00     0.016 A 
ATOM     15  C   UNL     1      20.034  28.739  18.982  1.00  0.00     0.016 A 
ATOM     16  C   UNL     1      22.218  28.521  20.711  1.00  0.00     0.047 A 
ATOM     17  C   UNL     1      20.448  29.842  19.730  1.00  0.00     0.047 A 
ATOM     18  C   UNL     1      21.532  29.724  20.590  1.00  0.00     0.115 A 
BRANCH  18  19
ATOM     19  O   UNL     1      21.899  30.826  21.305  1.00  0.00    -0.508 OA
ATOM     20  H   UNL     1      21.919  30.592  22.247  1.00  0.00     0.293 HD
ENDBRANCH  18  19
ENDBRANCH   6  13
BRANCH   7  21
ATOM     21  O   UNL     1      18.823  22.597  15.174  1.00  0.00    -0.507 OA
ATOM     22  H   UNL     1      18.871  21.643  14.995  1.00  0.00     0.293 HD
ENDBRANCH   7  21
BRANCH  12  23
ATOM     23  O   UNL     1      17.669  21.077  19.505  1.00  0.00    -0.508 OA
ATOM     24  H   UNL     1      16.742  21.297  19.700  1.00  0.00     0.293 HD
ENDBRANCH  12  23
ENDBRANCH   1   2
BRANCH   1  25
ATOM     25  C   UNL     1      22.323  27.428  16.337  1.00  0.00     0.339 C 
ATOM     26  O   UNL     1      22.616  28.718  16.865  1.00  0.00    -0.332 OA
ATOM     27  C   UNL     1      22.936  27.286  14.922  1.00  0.00     0.214 C 
ATOM     28  C   UNL     1      24.015  28.907  17.162  1.00  0.00     0.179 C 
ATOM     29  C   UNL     1      24.346  27.907  14.840  1.00  0.00     0.180 C 
ATOM     30  C   UNL     1      24.960  28.119  16.230  1.00  0.00     0.177 C 
BRANCH  27  31
ATOM     31  O   UNL     1      23.027  25.910  14.514  1.00  0.00    -0.384 OA
ATOM     32  H   UNL     1      22.379  25.761  13.785  1.00  0.00     0.211 HD
ENDBRANCH  27  31
BRANCH  28  33
ATOM     33  C   UNL     1      24.257  30.419  17.089  1.00  0.00     0.191 C 
BRANCH  33  34
ATOM     34  O   UNL     1      25.506  30.673  16.438  1.00  0.00    -0.394 OA
ATOM     35  H   UNL     1      25.274  31.040  15.561  1.00  0.00     0.210 HD
ENDBRANCH  33  34
ENDBRANCH  28  33
BRANCH  29  36
ATOM     36  O   UNL     1      24.322  29.153  14.135  1.00  0.00    -0.387 OA
ATOM     37  H   UNL     1      24.871  29.777  14.644  1.00  0.00     0.211 HD
ENDBRANCH  29  36
BRANCH  30  38
ATOM     38  O   UNL     1      25.215  26.840  16.837  1.00  0.00    -0.387 OA
ATOM     39  H   UNL     1      25.180  26.954  17.804  1.00  0.00     0.211 HD
ENDBRANCH  30  38
ENDBRANCH   1  25
TORSDOF 11
ENDMDL
MODEL 3
REMARK VINA RESULT:    -6.917      1.907      3.210
REMARK INTER + INTRA:         -11.462
REMARK INTER:                 -10.168
REMARK INTRA:                  -1.294
REMARK UNBOUND:                -1.512
REMARK SMILES O=c1c(O[C@@H]2O[C@H](CO)[C@@H](O)[C@H](O)[C@H]2O)c(-c2ccc(O)cc2)oc2cc(O)cc(O)c12
REMARK SMILES IDX 4 1 3 2 1 3 2 4 32 5 16 6 30 7 25 8 24 9 29 10 26 11 27 12
REMARK SMILES IDX 17 13 18 14 23 15 19 16 22 17 20 18 21 19 31 21 28 23 5 25
REMARK SMILES IDX 6 26 14 27 7 28 12 29 10 30 15 31 8 33 9 34 13 36 11 38
REMARK H PARENT 21 20 31 22 28 24 15 32 9 35 13 37 11 39
ROOT
ATOM      1  O   UNL     1      20.561  22.417  14.120  1.00  0.00    -0.454 OA
ENDROOT
BRANCH   1   2
ATOM      2  C   UNL     1      21.149  23.610  14.495  1.00  0.00     0.214 A 
ATOM      3  O   UNL     1      21.232  22.878  16.719  1.00  0.00    -0.285 OA
ATOM      4  C   UNL     1      21.456  23.798  15.939  1.00  0.00     0.239 A 
ATOM      5  C   UNL     1      22.036  25.102  16.330  1.00  0.00     0.111 A 
ATOM      6  C   UNL     1      21.410  24.611  13.636  1.00  0.00     0.180 A 
ATOM      7  C   UNL     1      22.359  25.431  17.654  1.00  0.00     0.134 A 
ATOM      8  C   UNL     1      22.273  26.039  15.321  1.00  0.00     0.146 A 
ATOM      9  O   UNL     1      21.993  25.812  13.998  1.00  0.00    -0.452 OA
ATOM     10  C   UNL     1      22.909  26.679  17.957  1.00  0.00     0.093 A 
ATOM     11  C   UNL     1      22.825  27.288  15.619  1.00  0.00     0.094 A 
ATOM     12  C   UNL     1      23.137  27.595  16.937  1.00  0.00     0.123 A 
BRANCH   6  13
ATOM     13  C   UNL     1      21.151  24.505  12.186  1.00  0.00     0.021 A 
ATOM     14  C   UNL     1      21.914  23.664  11.360  1.00  0.00     0.016 A 
ATOM     15  C   UNL     1      20.110  25.250  11.609  1.00  0.00     0.016 A 
ATOM     16  C   UNL     1      21.658  23.583   9.988  1.00  0.00     0.047 A 
ATOM     17  C   UNL     1      19.851  25.168  10.240  1.00  0.00     0.047 A 
ATOM     18  C   UNL     1      20.628  24.339   9.441  1.00  0.00     0.115 A 
BRANCH  18  19
ATOM     19  O   UNL     1      20.344  24.292   8.108  1.00  0.00    -0.508 OA
ATOM     20  H   UNL     1      19.381  24.232   7.998  1.00  0.00     0.293 HD
ENDBRANCH  18  19
ENDBRANCH   6  13
BRANCH   7  21
ATOM     21  O   UNL     1      22.141  24.545  18.669  1.00  0.00    -0.507 OA
ATOM     22  H   UNL     1      22.945  24.446  19.206  1.00  0.00     0.293 HD
ENDBRANCH   7  21
BRANCH  12  23
ATOM     23  O   UNL     1      23.676  28.800  17.278  1.00  0.00    -0.508 OA
ATOM     24  H   UNL     1      23.612  29.407  16.522  1.00  0.00     0.293 HD
ENDBRANCH  12  23
ENDBRANCH   1   2
BRANCH   1  25
ATOM     25  C   UNL     1      19.126  22.520  14.080  1.00  0.00     0.339 C 
ATOM     26  O   UNL     1      18.631  22.132  15.358  1.00  0.00    -0.332 OA
ATOM     27  C   UNL     1      18.622  21.534  12.998  1.00  0.00     0.214 C 
ATOM     28  C   UNL     1      17.204  22.301  15.489  1.00  0.00     0.179 C 
ATOM     29  C   UNL     1      17.148  21.137  13.221  1.00  0.00     0.180 C 
ATOM     30  C   UNL     1      16.431  22.110  14.168  1.00  0.00     0.177 C 
BRANCH  27  31
ATOM     31  O   UNL     1      18.742  22.085  11.674  1.00  0.00    -0.384 OA
ATOM     32  H   UNL     1      18.228  22.926  11.642  1.00  0.00     0.211 HD
ENDBRANCH  27  31
BRANCH  28  33
ATOM     33  C   UNL     1      16.764  21.304  16.568  1.00  0.00     0.191 C 
BRANCH  33  34
ATOM     34  O   UNL     1      17.703  20.226  16.636  1.00  0.00    -0.394 OA
ATOM     35  H   UNL     1      18.080  20.149  15.737  1.00  0.00     0.210 HD
ENDBRANCH  33  34
ENDBRANCH  28  33
BRANCH  29  36
ATOM     36  O   UNL     1      17.043  19.807  13.738  1.00  0.00    -0.387 OA
ATOM     37  H   UNL     1      16.818  19.227  12.987  1.00  0.00     0.211 HD
ENDBRANCH  29  36
BRANCH  30  38
ATOM     38  O   UNL     1      16.317  23.395  13.532  1.00  0.00    -0.387 OA
ATOM     39  H   UNL     1      17.011  23.973  13.897  1.00  0.00     0.211 HD
ENDBRANCH  30  38
ENDBRANCH   1  25
TORSDOF 11
ENDMDL
MODEL 4
REMARK VINA RESULT:    -6.785      1.927      3.088
REMARK INTER + INTRA:         -11.271
REMARK INTER:                 -10.625
REMARK INTRA:                  -0.646
REMARK UNBOUND:                -1.512
REMARK SMILES O=c1c(O[C@@H]2O[C@H](CO)[C@@H](O)[C@H](O)[C@H]2O)c(-c2ccc(O)cc2)oc2cc(O)cc(O)c12
REMARK SMILES IDX 4 1 3 2 1 3 2 4 32 5 16 6 30 7 25 8 24 9 29 10 26 11 27 12
REMARK SMILES IDX 17 13 18 14 23 15 19 16 22 17 20 18 21 19 31 21 28 23 5 25
REMARK SMILES IDX 6 26 14 27 7 28 12 29 10 30 15 31 8 33 9 34 13 36 11 38
REMARK H PARENT 21 20 31 22 28 24 15 32 9 35 13 37 11 39
ROOT
ATOM      1  O   UNL     1      20.555  22.661  17.481  1.00  0.00    -0.454 OA
ENDROOT
BRANCH   1   2
ATOM      2  C   UNL     1      21.051  23.886  17.077  1.00  0.00     0.214 A 
ATOM      3  O   UNL     1      21.130  24.598  19.307  1.00  0.00    -0.285 OA
ATOM      4  C   UNL     1      21.310  24.902  18.131  1.00  0.00     0.239 A 
ATOM      5  C   UNL     1      21.791  26.226  17.676  1.00  0.00     0.111 A 
ATOM      6  C   UNL     1      21.265  24.211  15.789  1.00  0.00     0.180 A 
ATOM      7  C   UNL     1      22.058  27.288  18.550  1.00  0.00     0.134 A 
ATOM      8  C   UNL     1      21.987  26.410  16.305  1.00  0.00     0.146 A 
ATOM      9  O   UNL     1      21.756  25.434  15.369  1.00  0.00    -0.452 OA
ATOM     10  C   UNL     1      22.515  28.511  18.056  1.00  0.00     0.093 A 
ATOM     11  C   UNL     1      22.446  27.633  15.805  1.00  0.00     0.094 A 
ATOM     12  C   UNL     1      22.705  28.672  16.688  1.00  0.00     0.123 A 
BRANCH   6  13
ATOM     13  C   UNL     1      21.048  23.260  14.680  1.00  0.00     0.021 A 
ATOM     14  C   UNL     1      21.487  21.929  14.755  1.00  0.00     0.016 A 
ATOM     15  C   UNL     1      20.378  23.684  13.521  1.00  0.00     0.016 A 
ATOM     16  C   UNL     1      21.279  21.046  13.691  1.00  0.00     0.047 A 
ATOM     17  C   UNL     1      20.167  22.802  12.460  1.00  0.00     0.047 A 
ATOM     18  C   UNL     1      20.621  21.493  12.552  1.00  0.00     0.115 A 
BRANCH  18  19
ATOM     19  O   UNL     1      20.398  20.667  11.490  1.00  0.00    -0.508 OA
ATOM     20  H   UNL     1      21.246  20.488  11.052  1.00  0.00     0.293 HD
ENDBRANCH  18  19
ENDBRANCH   6  13
BRANCH   7  21
ATOM     21  O   UNL     1      21.877  27.149  19.897  1.00  0.00    -0.507 OA
ATOM     22  H   UNL     1      21.004  27.489  20.154  1.00  0.00     0.293 HD
ENDBRANCH   7  21
BRANCH  12  23
ATOM     23  O   UNL     1      23.152  29.883  16.250  1.00  0.00    -0.508 OA
ATOM     24  H   UNL     1      22.847  30.578  16.858  1.00  0.00     0.293 HD
ENDBRANCH  12  23
ENDBRANCH   1   2
BRANCH   1  25
ATOM     25  C   UNL     1      19.150  22.730  17.785  1.00  0.00     0.339 C 
ATOM     26  O   UNL     1      19.000  22.501  19.183  1.00  0.00    -0.332 OA
ATOM     27  C   UNL     1      18.449  21.603  16.988  1.00  0.00     0.214 C 
ATOM     28  C   UNL     1      17.642  22.658  19.642  1.00  0.00     0.179 C 
ATOM     29  C   UNL     1      17.096  21.209  17.616  1.00  0.00     0.180 C 
ATOM     30  C   UNL     1      16.581  22.282  18.585  1.00  0.00     0.177 C 
BRANCH  27  31
ATOM     31  O   UNL     1      18.217  21.980  15.620  1.00  0.00    -0.384 OA
ATOM     32  H   UNL     1      19.050  22.366  15.260  1.00  0.00     0.211 HD
ENDBRANCH  27  31
BRANCH  28  33
ATOM     33  C   UNL     1      17.527  21.801  20.908  1.00  0.00     0.191 C 
BRANCH  33  34
ATOM     34  O   UNL     1      18.831  21.574  21.452  1.00  0.00    -0.394 OA
ATOM     35  H   UNL     1      18.722  20.852  22.103  1.00  0.00     0.210 HD
ENDBRANCH  33  34
ENDBRANCH  28  33
BRANCH  29  36
ATOM     36  O   UNL     1      17.187  19.955  18.298  1.00  0.00    -0.387 OA
ATOM     37  H   UNL     1      16.540  19.357  17.882  1.00  0.00     0.211 HD
ENDBRANCH  29  36
BRANCH  30  38
ATOM     38  O   UNL     1      16.251  23.471  17.847  1.00  0.00    -0.387 OA
ATOM     39  H   UNL     1      17.078  23.957  17.673  1.00  0.00     0.211 HD
ENDBRANCH  30  38
ENDBRANCH   1  25
TORSDOF 11
ENDMDL
MODEL 5
REMARK VINA RESULT:    -6.699      1.876      2.807
REMARK INTER + INTRA:         -11.148
REMARK INTER:                  -9.584
REMARK INTRA:                  -1.564
REMARK UNBOUND:                -1.512
REMARK SMILES O=c1c(O[C@@H]2O[C@H](CO)[C@@H](O)[C@H](O)[C@H]2O)c(-c2ccc(O)cc2)oc2cc(O)cc(O)c12
REMARK SMILES IDX 4 1 3 2 1 3 2 4 32 5 16 6 30 7 25 8 24 9 29 10 26 11 27 12
REMARK SMILES IDX 17 13 18 14 23 15 19 16 22 17 20 18 21 19 31 21 28 23 5 25
REMARK SMILES IDX 6 26 14 27 7 28 12 29 10 30 15 31 8 33 9 34 13 36 11 38
REMARK H PARENT 21 20 31 22 28 24 15 32 9 35 13 37 11 39
ROOT
ATOM      1  O   UNL     1      19.008  23.604  13.671  1.00  0.00    -0.454 OA
ENDROOT
BRANCH   1   2
ATOM      2  C   UNL     1      20.069  24.397  14.065  1.00  0.00     0.214 A 
ATOM      3  O   UNL     1      19.354  24.259  16.292  1.00  0.00    -0.285 OA
ATOM      4  C   UNL     1      20.171  24.737  15.510  1.00  0.00     0.239 A 
ATOM      5  C   UNL     1      21.282  25.631  15.906  1.00  0.00     0.111 A 
ATOM      6  C   UNL     1      20.973  24.906  13.209  1.00  0.00     0.180 A 
ATOM      7  C   UNL     1      21.494  26.053  17.226  1.00  0.00     0.134 A 
ATOM      8  C   UNL     1      22.158  26.063  14.906  1.00  0.00     0.146 A 
ATOM      9  O   UNL     1      22.036  25.705  13.588  1.00  0.00    -0.452 OA
ATOM     10  C   UNL     1      22.566  26.893  17.535  1.00  0.00     0.093 A 
ATOM     11  C   UNL     1      23.232  26.903  15.211  1.00  0.00     0.094 A 
ATOM     12  C   UNL     1      23.425  27.310  16.524  1.00  0.00     0.123 A 
BRANCH   6  13
ATOM     13  C   UNL     1      20.955  24.610  11.763  1.00  0.00     0.021 A 
ATOM     14  C   UNL     1      21.899  23.754  11.174  1.00  0.00     0.016 A 
ATOM     15  C   UNL     1      19.968  25.185  10.947  1.00  0.00     0.016 A 
ATOM     16  C   UNL     1      21.871  23.492   9.801  1.00  0.00     0.047 A 
ATOM     17  C   UNL     1      19.936  24.922   9.577  1.00  0.00     0.047 A 
ATOM     18  C   UNL     1      20.889  24.081   9.015  1.00  0.00     0.115 A 
BRANCH  18  19
ATOM     19  O   UNL     1      20.823  23.855   7.672  1.00  0.00    -0.508 OA
ATOM     20  H   UNL     1      20.455  22.969   7.523  1.00  0.00     0.293 HD
ENDBRANCH  18  19
ENDBRANCH   6  13
BRANCH   7  21
ATOM     21  O   UNL     1      20.660  25.655  18.231  1.00  0.00    -0.507 OA
ATOM     22  H   UNL     1      20.900  26.099  19.061  1.00  0.00     0.293 HD
ENDBRANCH   7  21
BRANCH  12  23
ATOM     23  O   UNL     1      24.458  28.130  16.871  1.00  0.00    -0.508 OA
ATOM     24  H   UNL     1      24.699  28.683  16.110  1.00  0.00     0.293 HD
ENDBRANCH  12  23
ENDBRANCH   1   2
BRANCH   1  25
ATOM     25  C   UNL     1      19.405  22.231  13.503  1.00  0.00     0.339 C 
ATOM     26  O   UNL     1      19.100  21.855  12.163  1.00  0.00    -0.332 OA
ATOM     27  C   UNL     1      18.568  21.383  14.492  1.00  0.00     0.214 C 
ATOM     28  C   UNL     1      19.556  20.529  11.827  1.00  0.00     0.179 C 
ATOM     29  C   UNL     1      18.478  19.907  14.052  1.00  0.00     0.180 C 
ATOM     30  C   UNL     1      19.556  19.550  13.021  1.00  0.00     0.177 C 
BRANCH  27  31
ATOM     31  O   UNL     1      19.110  21.423  15.823  1.00  0.00    -0.384 OA
ATOM     32  H   UNL     1      20.086  21.296  15.762  1.00  0.00     0.211 HD
ENDBRANCH  27  31
BRANCH  28  33
ATOM     33  C   UNL     1      18.649  20.052  10.687  1.00  0.00     0.191 C 
BRANCH  33  34
ATOM     34  O   UNL     1      17.387  20.724  10.766  1.00  0.00    -0.394 OA
ATOM     35  H   UNL     1      16.885  20.259  11.465  1.00  0.00     0.210 HD
ENDBRANCH  33  34
ENDBRANCH  28  33
BRANCH  29  36
ATOM     36  O   UNL     1      17.186  19.605  13.515  1.00  0.00    -0.387 OA
ATOM     37  H   UNL     1      17.260  19.671  12.545  1.00  0.00     0.211 HD
ENDBRANCH  29  36
BRANCH  30  38
ATOM     38  O   UNL     1      20.851  19.614  13.644  1.00  0.00    -0.387 OA
ATOM     39  H   UNL     1      21.511  19.793  12.950  1.00  0.00     0.211 HD
ENDBRANCH  30  38
ENDBRANCH   1  25
TORSDOF 11
ENDMDL
MODEL 6
REMARK VINA RESULT:    -6.552      1.686      5.994
REMARK INTER + INTRA:         -10.936
REMARK INTER:                 -10.185
REMARK INTRA:                  -0.750
REMARK UNBOUND:                -1.512
REMARK SMILES O=c1c(O[C@@H]2O[C@H](CO)[C@@H](O)[C@H](O)[C@H]2O)c(-c2ccc(O)cc2)oc2cc(O)cc(O)c12
REMARK SMILES IDX 4 1 3 2 1 3 2 4 32 5 16 6 30 7 25 8 24 9 29 10 26 11 27 12
REMARK SMILES IDX 17 13 18 14 23 15 19 16 22 17 20 18 21 19 31 21 28 23 5 25
REMARK SMILES IDX 6 26 14 27 7 28 12 29 10 30 15 31 8 33 9 34 13 36 11 38
REMARK H PARENT 21 20 31 22 28 24 15 32 9 35 13 37 11 39
ROOT
ATOM      1  O   UNL     1      21.692  22.293  14.866  1.00  0.00    -0.454 OA
ENDROOT
BRANCH   1   2
ATOM      2  C   UNL     1      21.410  22.901  13.657  1.00  0.00     0.214 A 
ATOM      3  O   UNL     1      21.219  20.801  12.636  1.00  0.00    -0.285 OA
ATOM      4  C   UNL     1      21.195  22.018  12.479  1.00  0.00     0.239 A 
ATOM      5  C   UNL     1      20.946  22.688  11.183  1.00  0.00     0.111 A 
ATOM      6  C   UNL     1      21.366  24.235  13.490  1.00  0.00     0.180 A 
ATOM      7  C   UNL     1      20.745  21.989   9.985  1.00  0.00     0.134 A 
ATOM      8  C   UNL     1      20.907  24.084  11.169  1.00  0.00     0.146 A 
ATOM      9  O   UNL     1      21.089  24.858  12.286  1.00  0.00    -0.452 OA
ATOM     10  C   UNL     1      20.510  22.682   8.795  1.00  0.00     0.093 A 
ATOM     11  C   UNL     1      20.670  24.782   9.981  1.00  0.00     0.094 A 
ATOM     12  C   UNL     1      20.474  24.071   8.804  1.00  0.00     0.123 A 
BRANCH   6  13
ATOM     13  C   UNL     1      21.553  25.184  14.606  1.00  0.00     0.021 A 
ATOM     14  C   UNL     1      20.530  25.447  15.530  1.00  0.00     0.016 A 
ATOM     15  C   UNL     1      22.786  25.838  14.763  1.00  0.00     0.016 A 
ATOM     16  C   UNL     1      20.724  26.355  16.575  1.00  0.00     0.047 A 
ATOM     17  C   UNL     1      22.982  26.742  15.808  1.00  0.00     0.047 A 
ATOM     18  C   UNL     1      21.950  26.996  16.703  1.00  0.00     0.115 A 
BRANCH  18  19
ATOM     19  O   UNL     1      22.184  27.889  17.705  1.00  0.00    -0.508 OA
ATOM     20  H   UNL     1      22.157  27.419  18.554  1.00  0.00     0.293 HD
ENDBRANCH  18  19
ENDBRANCH   6  13
BRANCH   7  21
ATOM     21  O   UNL     1      20.778  20.624   9.955  1.00  0.00    -0.507 OA
ATOM     22  H   UNL     1      20.494  20.264  10.812  1.00  0.00     0.293 HD
ENDBRANCH   7  21
BRANCH  12  23
ATOM     23  O   UNL     1      20.241  24.705   7.620  1.00  0.00    -0.508 OA
ATOM     24  H   UNL     1      20.365  24.077   6.889  1.00  0.00     0.293 HD
ENDBRANCH  12  23
ENDBRANCH   1   2
BRANCH   1  25
ATOM     25  C   UNL     1      20.500  21.792  15.499  1.00  0.00     0.339 C 
ATOM     26  O   UNL     1      19.383  22.392  14.852  1.00  0.00    -0.332 OA
ATOM     27  C   UNL     1      20.548  22.230  16.983  1.00  0.00     0.214 C 
ATOM     28  C   UNL     1      18.116  21.886  15.318  1.00  0.00     0.179 C 
ATOM     29  C   UNL     1      19.144  22.255  17.622  1.00  0.00     0.180 C 
ATOM     30  C   UNL     1      18.126  21.452  16.799  1.00  0.00     0.177 C 
BRANCH  27  31
ATOM     31  O   UNL     1      21.384  21.364  17.771  1.00  0.00    -0.384 OA
ATOM     32  H   UNL     1      20.863  21.059  18.551  1.00  0.00     0.211 HD
ENDBRANCH  27  31
BRANCH  28  33
ATOM     33  C   UNL     1      17.096  22.998  15.047  1.00  0.00     0.191 C 
BRANCH  33  34
ATOM     34  O   UNL     1      16.208  23.116  16.164  1.00  0.00    -0.394 OA
ATOM     35  H   UNL     1      16.104  22.209  16.514  1.00  0.00     0.210 HD
ENDBRANCH  33  34
ENDBRANCH  28  33
BRANCH  29  36
ATOM     36  O   UNL     1      18.672  23.596  17.784  1.00  0.00    -0.387 OA
ATOM     37  H   UNL     1      18.407  23.693  18.717  1.00  0.00     0.211 HD
ENDBRANCH  29  36
BRANCH  30  38
ATOM     38  O   UNL     1      18.469  20.056  16.849  1.00  0.00    -0.387 OA
ATOM     39  H   UNL     1      19.113  19.879  16.139  1.00  0.00     0.211 HD
ENDBRANCH  30  38
ENDBRANCH   1  25
TORSDOF 11
ENDMDL
MODEL 7
REMARK VINA RESULT:    -6.446      2.244      6.919
REMARK INTER + INTRA:         -10.783
REMARK INTER:                  -9.263
REMARK INTRA:                  -1.520
REMARK UNBOUND:                -1.512
REMARK SMILES O=c1c(O[C@@H]2O[C@H](CO)[C@@H](O)[C@H](O)[C@H]2O)c(-c2ccc(O)cc2)oc2cc(O)cc(O)c12
REMARK SMILES IDX 4 1 3 2 1 3 2 4 32 5 16 6 30 7 25 8 24 9 29 10 26 11 27 12
REMARK SMILES IDX 17 13 18 14 23 15 19 16 22 17 20 18 21 19 31 21 28 23 5 25
REMARK SMILES IDX 6 26 14 27 7 28 12 29 10 30 15 31 8 33 9 34 13 36 11 38
REMARK H PARENT 21 20 31 22 28 24 15 32 9 35 13 37 11 39
ROOT
ATOM      1  O   UNL     1      19.909  24.788  14.331  1.00  0.00    -0.454 OA
ENDROOT
BRANCH   1   2
ATOM      2  C   UNL     1      19.895  23.760  13.407  1.00  0.00     0.214 A 
ATOM      3  O   UNL     1      21.614  24.805  12.207  1.00  0.00    -0.285 OA
ATOM      4  C   UNL     1      20.835  23.859  12.258  1.00  0.00     0.239 A 
ATOM      5  C   UNL     1      20.770  22.776  11.251  1.00  0.00     0.111 A 
ATOM      6  C   UNL     1      19.053  22.713  13.474  1.00  0.00     0.180 A 
ATOM      7  C   UNL     1      21.579  22.744  10.107  1.00  0.00     0.134 A 
ATOM      8  C   UNL     1      19.857  21.740  11.467  1.00  0.00     0.146 A 
ATOM      9  O   UNL     1      19.024  21.680  12.554  1.00  0.00    -0.452 OA
ATOM     10  C   UNL     1      21.472  21.689   9.196  1.00  0.00     0.093 A 
ATOM     11  C   UNL     1      19.748  20.683  10.559  1.00  0.00     0.094 A 
ATOM     12  C   UNL     1      20.557  20.669   9.431  1.00  0.00     0.123 A 
BRANCH   6  13
ATOM     13  C   UNL     1      18.097  22.529  14.585  1.00  0.00     0.021 A 
ATOM     14  C   UNL     1      16.860  23.192  14.610  1.00  0.00     0.016 A 
ATOM     15  C   UNL     1      18.419  21.662  15.642  1.00  0.00     0.016 A 
ATOM     16  C   UNL     1      15.972  23.010  15.675  1.00  0.00     0.047 A 
ATOM     17  C   UNL     1      17.531  21.478  16.703  1.00  0.00     0.047 A 
ATOM     18  C   UNL     1      16.318  22.155  16.713  1.00  0.00     0.115 A 
BRANCH  18  19
ATOM     19  O   UNL     1      15.485  21.948  17.772  1.00  0.00    -0.508 OA
ATOM     20  H   UNL     1      15.661  21.067  18.140  1.00  0.00     0.293 HD
ENDBRANCH  18  19
ENDBRANCH   6  13
BRANCH   7  21
ATOM     21  O   UNL     1      22.482  23.737   9.858  1.00  0.00    -0.507 OA
ATOM     22  H   UNL     1      23.250  23.646  10.445  1.00  0.00     0.293 HD
ENDBRANCH   7  21
BRANCH  12  23
ATOM     23  O   UNL     1      20.487  19.660   8.517  1.00  0.00    -0.508 OA
ATOM     24  H   UNL     1      20.535  18.806   8.977  1.00  0.00     0.293 HD
ENDBRANCH  12  23
ENDBRANCH   1   2
BRANCH   1  25
ATOM     25  C   UNL     1      20.673  24.441  15.500  1.00  0.00     0.339 C 
ATOM     26  O   UNL     1      19.845  24.664  16.638  1.00  0.00    -0.332 OA
ATOM     27  C   UNL     1      21.899  25.385  15.548  1.00  0.00     0.214 C 
ATOM     28  C   UNL     1      20.455  24.245  17.876  1.00  0.00     0.179 C 
ATOM     29  C   UNL     1      22.477  25.509  16.973  1.00  0.00     0.180 C 
ATOM     30  C   UNL     1      21.992  24.375  17.887  1.00  0.00     0.177 C 
BRANCH  27  31
ATOM     31  O   UNL     1      22.951  24.939  14.674  1.00  0.00    -0.384 OA
ATOM     32  H   UNL     1      23.560  25.699  14.512  1.00  0.00     0.211 HD
ENDBRANCH  27  31
BRANCH  28  33
ATOM     33  C   UNL     1      19.794  25.088  18.973  1.00  0.00     0.191 C 
BRANCH  33  34
ATOM     34  O   UNL     1      19.255  26.283  18.399  1.00  0.00    -0.394 OA
ATOM     35  H   UNL     1      18.519  26.548  18.987  1.00  0.00     0.210 HD
ENDBRANCH  33  34
ENDBRANCH  28  33
BRANCH  29  36
ATOM     36  O   UNL     1      22.140  26.770  17.560  1.00  0.00    -0.387 OA
ATOM     37  H   UNL     1      21.829  26.588  18.465  1.00  0.00     0.211 HD
ENDBRANCH  29  36
BRANCH  30  38
ATOM     38  O   UNL     1      22.545  23.128  17.432  1.00  0.00    -0.387 OA
ATOM     39  H   UNL     1      21.817  22.483  17.366  1.00  0.00     0.211 HD
ENDBRANCH  30  38
ENDBRANCH   1  25
TORSDOF 11
ENDMDL
MODEL 8
REMARK VINA RESULT:    -6.324      2.574      7.376
REMARK INTER + INTRA:         -10.608
REMARK INTER:                  -9.242
REMARK INTRA:                  -1.366
REMARK UNBOUND:                -1.512
REMARK SMILES O=c1c(O[C@@H]2O[C@H](CO)[C@@H](O)[C@H](O)[C@H]2O)c(-c2ccc(O)cc2)oc2cc(O)cc(O)c12
REMARK SMILES IDX 4 1 3 2 1 3 2 4 32 5 16 6 30 7 25 8 24 9 29 10 26 11 27 12
REMARK SMILES IDX 17 13 18 14 23 15 19 16 22 17 20 18 21 19 31 21 28 23 5 25
REMARK SMILES IDX 6 26 14 27 7 28 12 29 10 30 15 31 8 33 9 34 13 36 11 38
REMARK H PARENT 21 20 31 22 28 24 15 32 9 35 13 37 11 39
ROOT
ATOM      1  O   UNL     1      18.185  23.605  16.332  1.00  0.00    -0.454 OA
ENDROOT
BRANCH   1   2
ATOM      2  C   UNL     1      18.150  23.095  17.616  1.00  0.00     0.214 A 
ATOM      3  O   UNL     1      16.579  21.492  16.944  1.00  0.00    -0.285 OA
ATOM      4  C   UNL     1      17.223  21.961  17.877  1.00  0.00     0.239 A 
ATOM      5  C   UNL     1      17.159  21.462  19.270  1.00  0.00     0.111 A 
ATOM      6  C   UNL     1      18.870  23.599  18.634  1.00  0.00     0.180 A 
ATOM      7  C   UNL     1      16.320  20.414  19.671  1.00  0.00     0.134 A 
ATOM      8  C   UNL     1      17.985  22.072  20.218  1.00  0.00     0.146 A 
ATOM      9  O   UNL     1      18.841  23.102  19.925  1.00  0.00    -0.452 OA
ATOM     10  C   UNL     1      16.311  19.987  21.001  1.00  0.00     0.093 A 
ATOM     11  C   UNL     1      17.980  21.647  21.549  1.00  0.00     0.094 A 
ATOM     12  C   UNL     1      17.141  20.607  21.927  1.00  0.00     0.123 A 
BRANCH   6  13
ATOM     13  C   UNL     1      19.823  24.713  18.461  1.00  0.00     0.021 A 
ATOM     14  C   UNL     1      21.182  24.485  18.193  1.00  0.00     0.016 A 
ATOM     15  C   UNL     1      19.369  26.038  18.556  1.00  0.00     0.016 A 
ATOM     16  C   UNL     1      22.071  25.554  18.040  1.00  0.00     0.047 A 
ATOM     17  C   UNL     1      20.255  27.106  18.400  1.00  0.00     0.047 A 
ATOM     18  C   UNL     1      21.597  26.856  18.148  1.00  0.00     0.115 A 
BRANCH  18  19
ATOM     19  O   UNL     1      22.428  27.928  18.007  1.00  0.00    -0.508 OA
ATOM     20  H   UNL     1      22.769  28.174  18.883  1.00  0.00     0.293 HD
ENDBRANCH  18  19
ENDBRANCH   6  13
BRANCH   7  21
ATOM     21  O   UNL     1      15.497  19.794  18.776  1.00  0.00    -0.507 OA
ATOM     22  H   UNL     1      14.920  19.159  19.234  1.00  0.00     0.293 HD
ENDBRANCH   7  21
BRANCH  12  23
ATOM     23  O   UNL     1      17.100  20.157  23.214  1.00  0.00    -0.508 OA
ATOM     24  H   UNL     1      17.165  20.913  23.821  1.00  0.00     0.293 HD
ENDBRANCH  12  23
ENDBRANCH   1   2
BRANCH   1  25
ATOM     25  C   UNL     1      19.321  23.115  15.596  1.00  0.00     0.339 C 
ATOM     26  O   UNL     1      20.000  24.242  15.051  1.00  0.00    -0.332 OA
ATOM     27  C   UNL     1      18.781  22.222  14.453  1.00  0.00     0.214 C 
ATOM     28  C   UNL     1      21.230  23.896  14.382  1.00  0.00     0.179 C 
ATOM     29  C   UNL     1      19.794  22.091  13.297  1.00  0.00     0.180 C 
ATOM     30  C   UNL     1      21.209  22.499  13.726  1.00  0.00     0.177 C 
BRANCH  27  31
ATOM     31  O   UNL     1      18.455  20.900  14.916  1.00  0.00    -0.384 OA
ATOM     32  H   UNL     1      18.984  20.251  14.394  1.00  0.00     0.211 HD
ENDBRANCH  27  31
BRANCH  28  33
ATOM     33  C   UNL     1      21.478  25.012  13.360  1.00  0.00     0.191 C 
BRANCH  33  34
ATOM     34  O   UNL     1      22.003  24.449  12.154  1.00  0.00    -0.394 OA
ATOM     35  H   UNL     1      22.966  24.616  12.183  1.00  0.00     0.210 HD
ENDBRANCH  33  34
ENDBRANCH  28  33
BRANCH  29  36
ATOM     36  O   UNL     1      19.394  22.874  12.168  1.00  0.00    -0.387 OA
ATOM     37  H   UNL     1      19.448  23.809  12.437  1.00  0.00     0.211 HD
ENDBRANCH  29  36
BRANCH  30  38
ATOM     38  O   UNL     1      21.707  21.552  14.688  1.00  0.00    -0.387 OA
ATOM     39  H   UNL     1      21.060  21.494  15.415  1.00  0.00     0.211 HD
ENDBRANCH  30  38
ENDBRANCH   1  25
TORSDOF 11
ENDMDL
MODEL 9
REMARK VINA RESULT:    -6.182      2.564      6.208
REMARK INTER + INTRA:         -10.404
REMARK INTER:                  -8.900
REMARK INTRA:                  -1.504
REMARK UNBOUND:                -1.512
REMARK SMILES O=c1c(O[C@@H]2O[C@H](CO)[C@@H](O)[C@H](O)[C@H]2O)c(-c2ccc(O)cc2)oc2cc(O)cc(O)c12
REMARK SMILES IDX 4 1 3 2 1 3 2 4 32 5 16 6 30 7 25 8 24 9 29 10 26 11 27 12
REMARK SMILES IDX 17 13 18 14 23 15 19 16 22 17 20 18 21 19 31 21 28 23 5 25
REMARK SMILES IDX 6 26 14 27 7 28 12 29 10 30 15 31 8 33 9 34 13 36 11 38
REMARK H PARENT 21 20 31 22 28 24 15 32 9 35 13 37 11 39
ROOT
ATOM      1  O   UNL     1      19.874  21.851  15.995  1.00  0.00    -0.454 OA
ENDROOT
BRANCH   1   2
ATOM      2  C   UNL     1      20.018  22.634  14.865  1.00  0.00     0.214 A 
ATOM      3  O   UNL     1      19.311  20.845  13.527  1.00  0.00    -0.285 OA
ATOM      4  C   UNL     1      19.721  22.001  13.551  1.00  0.00     0.239 A 
ATOM      5  C   UNL     1      19.932  22.838  12.348  1.00  0.00     0.111 A 
ATOM      6  C   UNL     1      20.451  23.907  14.894  1.00  0.00     0.180 A 
ATOM      7  C   UNL     1      19.713  22.374  11.044  1.00  0.00     0.134 A 
ATOM      8  C   UNL     1      20.364  24.153  12.538  1.00  0.00     0.146 A 
ATOM      9  O   UNL     1      20.604  24.700  13.771  1.00  0.00    -0.452 OA
ATOM     10  C   UNL     1      19.925  23.217   9.950  1.00  0.00     0.093 A 
ATOM     11  C   UNL     1      20.577  25.000  11.446  1.00  0.00     0.094 A 
ATOM     12  C   UNL     1      20.355  24.522  10.162  1.00  0.00     0.123 A 
BRANCH   6  13
ATOM     13  C   UNL     1      20.755  24.616  16.153  1.00  0.00     0.021 A 
ATOM     14  C   UNL     1      19.925  25.637  16.642  1.00  0.00     0.016 A 
ATOM     15  C   UNL     1      21.894  24.262  16.894  1.00  0.00     0.016 A 
ATOM     16  C   UNL     1      20.234  26.303  17.833  1.00  0.00     0.047 A 
ATOM     17  C   UNL     1      22.202  24.923  18.084  1.00  0.00     0.047 A 
ATOM     18  C   UNL     1      21.372  25.939  18.541  1.00  0.00     0.115 A 
BRANCH  18  19
ATOM     19  O   UNL     1      21.714  26.561  19.705  1.00  0.00    -0.508 OA
ATOM     20  H   UNL     1      20.938  27.040  20.042  1.00  0.00     0.293 HD
ENDBRANCH  18  19
ENDBRANCH   6  13
BRANCH   7  21
ATOM     21  O   UNL     1      19.292  21.095  10.816  1.00  0.00    -0.507 OA
ATOM     22  H   UNL     1      19.738  20.729  10.034  1.00  0.00     0.293 HD
ENDBRANCH   7  21
BRANCH  12  23
ATOM     23  O   UNL     1      20.549  25.308   9.065  1.00  0.00    -0.508 OA
ATOM     24  H   UNL     1      19.691  25.639   8.751  1.00  0.00     0.293 HD
ENDBRANCH  12  23
ENDBRANCH   1   2
BRANCH   1  25
ATOM     25  C   UNL     1      18.541  21.934  16.532  1.00  0.00     0.339 C 
ATOM     26  O   UNL     1      18.637  22.507  17.833  1.00  0.00    -0.332 OA
ATOM     27  C   UNL     1      17.992  20.490  16.631  1.00  0.00     0.214 C 
ATOM     28  C   UNL     1      17.352  22.753  18.442  1.00  0.00     0.179 C 
ATOM     29  C   UNL     1      16.852  20.376  17.664  1.00  0.00     0.180 C 
ATOM     30  C   UNL     1      16.260  21.748  18.017  1.00  0.00     0.177 C 
BRANCH  27  31
ATOM     31  O   UNL     1      17.499  20.017  15.365  1.00  0.00    -0.384 OA
ATOM     32  H   UNL     1      16.521  20.147  15.347  1.00  0.00     0.211 HD
ENDBRANCH  27  31
BRANCH  28  33
ATOM     33  C   UNL     1      17.597  22.737  19.955  1.00  0.00     0.191 C 
BRANCH  33  34
ATOM     34  O   UNL     1      18.791  22.000  20.240  1.00  0.00    -0.394 OA
ATOM     35  H   UNL     1      19.011  22.205  21.170  1.00  0.00     0.210 HD
ENDBRANCH  33  34
ENDBRANCH  28  33
BRANCH  29  36
ATOM     36  O   UNL     1      17.300  19.730  18.860  1.00  0.00    -0.387 OA
ATOM     37  H   UNL     1      18.058  19.169  18.613  1.00  0.00     0.211 HD
ENDBRANCH  29  36
BRANCH  30  38
ATOM     38  O   UNL     1      15.588  22.286  16.866  1.00  0.00    -0.387 OA
ATOM     39  H   UNL     1      15.035  23.032  17.162  1.00  0.00     0.211 HD
ENDBRANCH  30  38
ENDBRANCH   1  25
TORSDOF 11
ENDMDL
