MODEL 1
REMARK VINA RESULT:    -6.650      0.000      0.000
REMARK INTER + INTRA:          -7.801
REMARK INTER:                  -7.428
REMARK INTRA:                  -0.373
REMARK UNBOUND:                -0.373
REMARK SMILES C#CC[NH2+][C@@H]1CCc2ccccc21
REMARK SMILES IDX 1 1 2 2 3 3 4 4 5 7 6 8 13 9 7 10 12 11 8 12 11 13 9 14
REMARK SMILES IDX 10 15
REMARK H PARENT 4 5 4 6
ROOT
ATOM      1  C   UNL     1      20.639 -31.503  33.886  1.00  0.00     0.010 C 
ATOM      2  C   UNL     1      20.441 -31.054  34.983  1.00  0.00    -0.047 C 
ATOM      3  C   UNL     1      20.196 -30.490  36.302  1.00  0.00     0.352 C 
ENDROOT
BRANCH   3   4
ATOM      4  N   UNL     1      20.474 -31.488  37.371  1.00  0.00    -0.330 N 
ATOM      5  H   UNL     1      21.132 -32.171  36.981  1.00  0.00     0.347 HD
ATOM      6  H   UNL     1      20.993 -31.002  38.110  1.00  0.00     0.347 HD
BRANCH   4   7
ATOM      7  C   UNL     1      19.377 -32.252  38.028  1.00  0.00     0.214 C 
ATOM      8  C   UNL     1      19.518 -32.357  39.557  1.00  0.00     0.075 C 
ATOM      9  C   UNL     1      19.188 -33.682  37.629  1.00  0.00     0.012 A 
ATOM     10  C   UNL     1      18.665 -33.570  39.966  1.00  0.00     0.042 C 
ATOM     11  C   UNL     1      19.268 -34.272  36.375  1.00  0.00     0.010 A 
ATOM     12  C   UNL     1      18.788 -34.432  38.746  1.00  0.00    -0.039 A 
ATOM     13  C   UNL     1      18.985 -35.635  36.264  1.00  0.00     0.001 A 
ATOM     14  C   UNL     1      18.493 -35.780  38.639  1.00  0.00     0.004 A 
ATOM     15  C   UNL     1      18.605 -36.384  37.387  1.00  0.00     0.000 A 
ENDBRANCH   4   7
ENDBRANCH   3   4
TORSDOF 2
ENDMDL
MODEL 2
REMARK VINA RESULT:    -6.546      5.727      7.870
REMARK INTER + INTRA:          -7.685
REMARK INTER:                  -7.384
REMARK INTRA:                  -0.301
REMARK UNBOUND:                -0.373
REMARK SMILES C#CC[NH2+][C@@H]1CCc2ccccc21
REMARK SMILES IDX 1 1 2 2 3 3 4 4 5 7 6 8 13 9 7 10 12 11 8 12 11 13 9 14
REMARK SMILES IDX 10 15
REMARK H PARENT 4 5 4 6
ROOT
ATOM      1  C   UNL     1      20.051 -31.257  39.572  1.00  0.00     0.010 C 
ATOM      2  C   UNL     1      21.114 -30.760  39.310  1.00  0.00    -0.047 C 
ATOM      3  C   UNL     1      22.408 -30.179  38.983  1.00  0.00     0.352 C 
ENDROOT
BRANCH   3   4
ATOM      4  N   UNL     1      22.539 -28.811  39.555  1.00  0.00    -0.330 N 
ATOM      5  H   UNL     1      23.501 -28.504  39.383  1.00  0.00     0.347 HD
ATOM      6  H   UNL     1      21.949 -28.190  38.990  1.00  0.00     0.347 HD
BRANCH   4   7
ATOM      7  C   UNL     1      22.232 -28.533  40.986  1.00  0.00     0.214 C 
ATOM      8  C   UNL     1      21.941 -27.052  41.286  1.00  0.00     0.075 C 
ATOM      9  C   UNL     1      23.283 -28.861  42.000  1.00  0.00     0.012 A 
ATOM     10  C   UNL     1      22.186 -26.882  42.794  1.00  0.00     0.042 C 
ATOM     11  C   UNL     1      24.137 -29.952  42.073  1.00  0.00     0.010 A 
ATOM     12  C   UNL     1      23.255 -27.906  43.028  1.00  0.00    -0.039 A 
ATOM     13  C   UNL     1      24.996 -30.051  43.170  1.00  0.00     0.001 A 
ATOM     14  C   UNL     1      24.095 -28.006  44.124  1.00  0.00     0.004 A 
ATOM     15  C   UNL     1      24.979 -29.083  44.185  1.00  0.00     0.000 A 
ENDBRANCH   4   7
ENDBRANCH   3   4
TORSDOF 2
ENDMDL
MODEL 3
REMARK VINA RESULT:    -6.524      1.351      1.991
REMARK INTER + INTRA:          -7.660
REMARK INTER:                  -7.637
REMARK INTRA:                  -0.023
REMARK UNBOUND:                -0.373
REMARK SMILES C#CC[NH2+][C@@H]1CCc2ccccc21
REMARK SMILES IDX 1 1 2 2 3 3 4 4 5 7 6 8 13 9 7 10 12 11 8 12 11 13 9 14
REMARK SMILES IDX 10 15
REMARK H PARENT 4 5 4 6
ROOT
ATOM      1  C   UNL     1      22.544 -29.902  39.256  1.00  0.00     0.010 C 
ATOM      2  C   UNL     1      21.729 -30.045  38.383  1.00  0.00    -0.047 C 
ATOM      3  C   UNL     1      20.741 -30.195  37.325  1.00  0.00     0.352 C 
ENDROOT
BRANCH   3   4
ATOM      4  N   UNL     1      20.404 -31.629  37.108  1.00  0.00    -0.330 N 
ATOM      5  H   UNL     1      20.177 -31.738  36.115  1.00  0.00     0.347 HD
ATOM      6  H   UNL     1      21.266 -32.166  37.252  1.00  0.00     0.347 HD
BRANCH   4   7
ATOM      7  C   UNL     1      19.327 -32.302  37.887  1.00  0.00     0.214 C 
ATOM      8  C   UNL     1      19.504 -32.203  39.412  1.00  0.00     0.075 C 
ATOM      9  C   UNL     1      19.136 -33.773  37.685  1.00  0.00     0.012 A 
ATOM     10  C   UNL     1      18.668 -33.353  39.998  1.00  0.00     0.042 C 
ATOM     11  C   UNL     1      19.191 -34.524  36.519  1.00  0.00     0.010 A 
ATOM     12  C   UNL     1      18.767 -34.368  38.901  1.00  0.00    -0.039 A 
ATOM     13  C   UNL     1      18.913 -35.890  36.596  1.00  0.00     0.001 A 
ATOM     14  C   UNL     1      18.478 -35.720  38.981  1.00  0.00     0.004 A 
ATOM     15  C   UNL     1      18.564 -36.485  37.818  1.00  0.00     0.000 A 
ENDBRANCH   4   7
ENDBRANCH   3   4
TORSDOF 2
ENDMDL
MODEL 4
REMARK VINA RESULT:    -6.335      6.631      8.498
REMARK INTER + INTRA:          -7.449
REMARK INTER:                  -7.040
REMARK INTRA:                  -0.410
REMARK UNBOUND:                -0.373
REMARK SMILES C#CC[NH2+][C@@H]1CCc2ccccc21
REMARK SMILES IDX 1 1 2 2 3 3 4 4 5 7 6 8 13 9 7 10 12 11 8 12 11 13 9 14
REMARK SMILES IDX 10 15
REMARK H PARENT 4 5 4 6
ROOT
ATOM      1  C   UNL     1      20.617 -29.352  39.558  1.00  0.00     0.010 C 
ATOM      2  C   UNL     1      20.695 -28.227  39.974  1.00  0.00    -0.047 C 
ATOM      3  C   UNL     1      20.770 -26.860  40.468  1.00  0.00     0.352 C 
ENDROOT
BRANCH   3   4
ATOM      4  N   UNL     1      22.061 -26.614  41.169  1.00  0.00    -0.330 N 
ATOM      5  H   UNL     1      22.803 -26.995  40.573  1.00  0.00     0.347 HD
ATOM      6  H   UNL     1      22.211 -25.600  41.177  1.00  0.00     0.347 HD
BRANCH   4   7
ATOM      7  C   UNL     1      22.302 -27.111  42.552  1.00  0.00     0.214 C 
ATOM      8  C   UNL     1      22.813 -26.031  43.522  1.00  0.00     0.075 C 
ATOM      9  C   UNL     1      23.309 -28.203  42.735  1.00  0.00     0.012 A 
ATOM     10  C   UNL     1      23.494 -26.797  44.669  1.00  0.00     0.042 C 
ATOM     11  C   UNL     1      23.553 -29.325  41.957  1.00  0.00     0.010 A 
ATOM     12  C   UNL     1      23.993 -28.011  43.946  1.00  0.00    -0.039 A 
ATOM     13  C   UNL     1      24.524 -30.233  42.386  1.00  0.00     0.001 A 
ATOM     14  C   UNL     1      24.947 -28.914  44.383  1.00  0.00     0.004 A 
ATOM     15  C   UNL     1      25.219 -30.026  43.587  1.00  0.00     0.000 A 
ENDBRANCH   4   7
ENDBRANCH   3   4
TORSDOF 2
ENDMDL
MODEL 5
REMARK VINA RESULT:    -6.175      1.707      2.896
REMARK INTER + INTRA:          -7.271
REMARK INTER:                  -6.845
REMARK INTRA:                  -0.426
REMARK UNBOUND:                -0.373
REMARK SMILES C#CC[NH2+][C@@H]1CCc2ccccc21
REMARK SMILES IDX 1 1 2 2 3 3 4 4 5 7 6 8 13 9 7 10 12 11 8 12 11 13 9 14
REMARK SMILES IDX 10 15
REMARK H PARENT 4 5 4 6
ROOT
ATOM      1  C   UNL     1      20.818 -30.137  38.299  1.00  0.00     0.010 C 
ATOM      2  C   UNL     1      20.314 -31.005  38.960  1.00  0.00    -0.047 C 
ATOM      3  C   UNL     1      19.722 -32.058  39.772  1.00  0.00     0.352 C 
ENDROOT
BRANCH   3   4
ATOM      4  N   UNL     1      18.350 -32.391  39.299  1.00  0.00    -0.330 N 
ATOM      5  H   UNL     1      17.728 -32.324  40.110  1.00  0.00     0.347 HD
ATOM      6  H   UNL     1      18.058 -31.637  38.668  1.00  0.00     0.347 HD
BRANCH   4   7
ATOM      7  C   UNL     1      18.054 -33.681  38.616  1.00  0.00     0.214 C 
ATOM      8  C   UNL     1      18.400 -34.924  39.453  1.00  0.00     0.075 C 
ATOM      9  C   UNL     1      18.756 -33.962  37.325  1.00  0.00     0.012 A 
ATOM     10  C   UNL     1      18.545 -36.074  38.441  1.00  0.00     0.042 C 
ATOM     11  C   UNL     1      19.047 -33.112  36.267  1.00  0.00     0.010 A 
ATOM     12  C   UNL     1      19.042 -35.334  37.236  1.00  0.00    -0.039 A 
ATOM     13  C   UNL     1      19.668 -33.646  35.136  1.00  0.00     0.001 A 
ATOM     14  C   UNL     1      19.645 -35.872  36.113  1.00  0.00     0.004 A 
ATOM     15  C   UNL     1      19.969 -35.015  35.061  1.00  0.00     0.000 A 
ENDBRANCH   4   7
ENDBRANCH   3   4
TORSDOF 2
ENDMDL
MODEL 6
REMARK VINA RESULT:    -6.148      8.095     10.320
REMARK INTER + INTRA:          -7.241
REMARK INTER:                  -7.105
REMARK INTRA:                  -0.135
REMARK UNBOUND:                -0.373
REMARK SMILES C#CC[NH2+][C@@H]1CCc2ccccc21
REMARK SMILES IDX 1 1 2 2 3 3 4 4 5 7 6 8 13 9 7 10 12 11 8 12 11 13 9 14
REMARK SMILES IDX 10 15
REMARK H PARENT 4 5 4 6
ROOT
ATOM      1  C   UNL     1      21.122 -24.704  47.716  1.00  0.00     0.010 C 
ATOM      2  C   UNL     1      21.511 -24.801  46.583  1.00  0.00    -0.047 C 
ATOM      3  C   UNL     1      21.971 -24.899  45.205  1.00  0.00     0.352 C 
ENDROOT
BRANCH   3   4
ATOM      4  N   UNL     1      22.736 -26.158  44.986  1.00  0.00    -0.330 N 
ATOM      5  H   UNL     1      23.608 -26.076  45.517  1.00  0.00     0.347 HD
ATOM      6  H   UNL     1      22.210 -26.913  45.439  1.00  0.00     0.347 HD
BRANCH   4   7
ATOM      7  C   UNL     1      23.090 -26.625  43.616  1.00  0.00     0.214 C 
ATOM      8  C   UNL     1      21.879 -26.801  42.684  1.00  0.00     0.075 C 
ATOM      9  C   UNL     1      23.784 -27.945  43.488  1.00  0.00     0.012 A 
ATOM     10  C   UNL     1      22.350 -27.758  41.576  1.00  0.00     0.042 C 
ATOM     11  C   UNL     1      24.782 -28.504  44.274  1.00  0.00     0.010 A 
ATOM     12  C   UNL     1      23.348 -28.592  42.321  1.00  0.00    -0.039 A 
ATOM     13  C   UNL     1      25.306 -29.743  43.898  1.00  0.00     0.001 A 
ATOM     14  C   UNL     1      23.874 -29.813  41.936  1.00  0.00     0.004 A 
ATOM     15  C   UNL     1      24.853 -30.394  42.742  1.00  0.00     0.000 A 
ENDBRANCH   4   7
ENDBRANCH   3   4
TORSDOF 2
ENDMDL
MODEL 7
REMARK VINA RESULT:    -5.993      8.960     11.348
REMARK INTER + INTRA:          -7.068
REMARK INTER:                  -6.907
REMARK INTRA:                  -0.160
REMARK UNBOUND:                -0.373
REMARK SMILES C#CC[NH2+][C@@H]1CCc2ccccc21
REMARK SMILES IDX 1 1 2 2 3 3 4 4 5 7 6 8 13 9 7 10 12 11 8 12 11 13 9 14
REMARK SMILES IDX 10 15
REMARK H PARENT 4 5 4 6
ROOT
ATOM      1  C   UNL     1      20.080 -25.284  49.034  1.00  0.00     0.010 C 
ATOM      2  C   UNL     1      20.484 -24.873  47.979  1.00  0.00    -0.047 C 
ATOM      3  C   UNL     1      20.956 -24.359  46.702  1.00  0.00     0.352 C 
ENDROOT
BRANCH   3   4
ATOM      4  N   UNL     1      22.079 -25.185  46.176  1.00  0.00    -0.330 N 
ATOM      5  H   UNL     1      22.936 -24.847  46.624  1.00  0.00     0.347 HD
ATOM      6  H   UNL     1      21.943 -26.138  46.530  1.00  0.00     0.347 HD
BRANCH   4   7
ATOM      7  C   UNL     1      22.351 -25.288  44.716  1.00  0.00     0.214 C 
ATOM      8  C   UNL     1      21.100 -25.134  43.834  1.00  0.00     0.075 C 
ATOM      9  C   UNL     1      22.942 -26.566  44.206  1.00  0.00     0.012 A 
ATOM     10  C   UNL     1      21.460 -25.786  42.489  1.00  0.00     0.042 C 
ATOM     11  C   UNL     1      23.922 -27.376  44.762  1.00  0.00     0.010 A 
ATOM     12  C   UNL     1      22.420 -26.848  42.934  1.00  0.00    -0.039 A 
ATOM     13  C   UNL     1      24.342 -28.498  44.045  1.00  0.00     0.001 A 
ATOM     14  C   UNL     1      22.841 -27.952  42.212  1.00  0.00     0.004 A 
ATOM     15  C   UNL     1      23.803 -28.787  42.782  1.00  0.00     0.000 A 
ENDBRANCH   4   7
ENDBRANCH   3   4
TORSDOF 2
ENDMDL
MODEL 8
REMARK VINA RESULT:    -5.992      1.477      4.152
REMARK INTER + INTRA:          -7.066
REMARK INTER:                  -6.715
REMARK INTRA:                  -0.351
REMARK UNBOUND:                -0.373
REMARK SMILES C#CC[NH2+][C@@H]1CCc2ccccc21
REMARK SMILES IDX 1 1 2 2 3 3 4 4 5 7 6 8 13 9 7 10 12 11 8 12 11 13 9 14
REMARK SMILES IDX 10 15
REMARK H PARENT 4 5 4 6
ROOT
ATOM      1  C   UNL     1      20.824 -29.951  39.354  1.00  0.00     0.010 C 
ATOM      2  C   UNL     1      20.114 -30.921  39.365  1.00  0.00    -0.047 C 
ATOM      3  C   UNL     1      19.241 -32.086  39.394  1.00  0.00     0.352 C 
ENDROOT
BRANCH   3   4
ATOM      4  N   UNL     1      19.798 -33.191  38.567  1.00  0.00    -0.330 N 
ATOM      5  H   UNL     1      20.766 -32.941  38.342  1.00  0.00     0.347 HD
ATOM      6  H   UNL     1      19.863 -34.017  39.172  1.00  0.00     0.347 HD
BRANCH   4   7
ATOM      7  C   UNL     1      19.143 -33.621  37.300  1.00  0.00     0.214 C 
ATOM      8  C   UNL     1      19.266 -35.128  37.013  1.00  0.00     0.075 C 
ATOM      9  C   UNL     1      19.633 -33.015  36.022  1.00  0.00     0.012 A 
ATOM     10  C   UNL     1      19.039 -35.278  35.500  1.00  0.00     0.042 C 
ATOM     11  C   UNL     1      20.013 -31.708  35.747  1.00  0.00     0.010 A 
ATOM     12  C   UNL     1      19.578 -33.973  34.998  1.00  0.00    -0.039 A 
ATOM     13  C   UNL     1      20.380 -31.385  34.439  1.00  0.00     0.001 A 
ATOM     14  C   UNL     1      19.928 -33.655  33.697  1.00  0.00     0.004 A 
ATOM     15  C   UNL     1      20.343 -32.352  33.423  1.00  0.00     0.000 A 
ENDBRANCH   4   7
ENDBRANCH   3   4
TORSDOF 2
ENDMDL
MODEL 9
REMARK VINA RESULT:    -5.908      8.081     10.255
REMARK INTER + INTRA:          -6.972
REMARK INTER:                  -6.592
REMARK INTRA:                  -0.380
REMARK UNBOUND:                -0.373
REMARK SMILES C#CC[NH2+][C@@H]1CCc2ccccc21
REMARK SMILES IDX 1 1 2 2 3 3 4 4 5 7 6 8 13 9 7 10 12 11 8 12 11 13 9 14
REMARK SMILES IDX 10 15
REMARK H PARENT 4 5 4 6
ROOT
ATOM      1  C   UNL     1      19.334 -23.786  45.272  1.00  0.00     0.010 C 
ATOM      2  C   UNL     1      20.414 -24.157  45.649  1.00  0.00    -0.047 C 
ATOM      3  C   UNL     1      21.716 -24.599  46.126  1.00  0.00     0.352 C 
ENDROOT
BRANCH   3   4
ATOM      4  N   UNL     1      22.600 -24.981  44.991  1.00  0.00    -0.330 N 
ATOM      5  H   UNL     1      22.313 -24.419  44.183  1.00  0.00     0.347 HD
ATOM      6  H   UNL     1      23.546 -24.660  45.224  1.00  0.00     0.347 HD
BRANCH   4   7
ATOM      7  C   UNL     1      22.712 -26.394  44.532  1.00  0.00     0.214 C 
ATOM      8  C   UNL     1      24.157 -26.853  44.271  1.00  0.00     0.075 C 
ATOM      9  C   UNL     1      22.026 -26.768  43.256  1.00  0.00     0.012 A 
ATOM     10  C   UNL     1      24.040 -28.066  43.333  1.00  0.00     0.042 C 
ATOM     11  C   UNL     1      20.785 -26.382  42.768  1.00  0.00     0.010 A 
ATOM     12  C   UNL     1      22.797 -27.721  42.571  1.00  0.00    -0.039 A 
ATOM     13  C   UNL     1      20.347 -26.929  41.560  1.00  0.00     0.001 A 
ATOM     14  C   UNL     1      22.362 -28.277  41.381  1.00  0.00     0.004 A 
ATOM     15  C   UNL     1      21.131 -27.866  40.869  1.00  0.00     0.000 A 
ENDBRANCH   4   7
ENDBRANCH   3   4
TORSDOF 2
ENDMDL
