MODEL 1
REMARK VINA RESULT:    -8.525      0.000      0.000
REMARK INTER + INTRA:         -14.797
REMARK INTER:                 -12.760
REMARK INTRA:                  -2.037
REMARK UNBOUND:                -2.037
REMARK SMILES O=c1c(O[C@@H]2O[C@H]([C@H](O)CO)[C@H](O)[C@H]2O)c(-c2ccc([O-])c(O)c2)oc2cc(O)cc(O)c12
REMARK SMILES IDX 5 1 6 2 7 3 12 4 14 5 4 6 3 7 1 8 2 9 33 10 16 11 31 12
REMARK SMILES IDX 26 13 25 14 30 15 27 16 28 17 17 18 18 19 24 20 19 21 22 22
REMARK SMILES IDX 20 23 21 24 23 25 32 27 29 29 15 31 8 33 9 34 10 36 11 37
REMARK SMILES IDX 13 39
REMARK H PARENT 23 26 32 28 29 30 15 32 9 35 11 38 13 40
ROOT
ATOM      1  C   UNL     1      19.065 -27.105  39.524  1.00  0.00     0.339 C 
ATOM      2  O   UNL     1      18.327 -27.680  38.430  1.00  0.00    -0.332 OA
ATOM      3  C   UNL     1      17.519 -26.639  37.835  1.00  0.00     0.185 C 
ATOM      4  C   UNL     1      17.202 -25.721  39.018  1.00  0.00     0.181 C 
ATOM      5  C   UNL     1      18.525 -25.689  39.758  1.00  0.00     0.214 C 
ENDROOT
BRANCH   1   6
ATOM      6  O   UNL     1      20.448 -26.977  39.188  1.00  0.00    -0.454 OA
BRANCH   6   7
ATOM      7  C   UNL     1      21.310 -27.462  40.151  1.00  0.00     0.214 A 
ATOM      8  O   UNL     1      21.578 -25.341  41.205  1.00  0.00    -0.285 OA
ATOM      9  C   UNL     1      21.865 -26.538  41.173  1.00  0.00     0.239 A 
ATOM     10  C   UNL     1      22.790 -27.115  42.159  1.00  0.00     0.111 A 
ATOM     11  C   UNL     1      21.751 -28.733  40.146  1.00  0.00     0.180 A 
ATOM     12  C   UNL     1      23.345 -26.344  43.188  1.00  0.00     0.134 A 
ATOM     13  C   UNL     1      23.116 -28.467  42.056  1.00  0.00     0.146 A 
ATOM     14  O   UNL     1      22.619 -29.282  41.070  1.00  0.00    -0.452 OA
ATOM     15  C   UNL     1      24.214 -26.920  44.110  1.00  0.00     0.093 A 
ATOM     16  C   UNL     1      23.987 -29.050  42.976  1.00  0.00     0.094 A 
ATOM     17  C   UNL     1      24.528 -28.272  43.996  1.00  0.00     0.123 A 
BRANCH  11  18
ATOM     18  C   UNL     1      21.286 -29.676  39.119  1.00  0.00     0.025 A 
ATOM     19  C   UNL     1      21.723 -29.551  37.794  1.00  0.00     0.012 A 
ATOM     20  C   UNL     1      20.333 -30.642  39.426  1.00  0.00     0.057 A 
ATOM     21  C   UNL     1      21.157 -30.337  36.780  1.00  0.00    -0.004 A 
ATOM     22  C   UNL     1      19.788 -31.397  38.390  1.00  0.00     0.108 A 
ATOM     23  C   UNL     1      20.134 -31.264  37.027  1.00  0.00    -0.066 A 
ATOM     24  O   UNL     1      19.525 -31.902  36.101  1.00  0.00    -0.870 OA
BRANCH  22  25
ATOM     25  O   UNL     1      18.801 -32.310  38.681  1.00  0.00    -0.509 OA
ATOM     26  H   UNL     1      18.018 -31.735  38.493  1.00  0.00     0.293 HD
ENDBRANCH  22  25
ENDBRANCH  11  18
BRANCH  12  27
ATOM     27  O   UNL     1      23.076 -25.010  43.349  1.00  0.00    -0.507 OA
ATOM     28  H   UNL     1      22.101 -24.894  43.365  1.00  0.00     0.293 HD
ENDBRANCH  12  27
BRANCH  17  29
ATOM     29  O   UNL     1      25.376 -28.878  44.876  1.00  0.00    -0.508 OA
ATOM     30  H   UNL     1      25.947 -29.493  44.387  1.00  0.00     0.293 HD
ENDBRANCH  17  29
ENDBRANCH   6   7
ENDBRANCH   1   6
BRANCH   5  31
ATOM     31  O   UNL     1      18.339 -25.375  41.143  1.00  0.00    -0.384 OA
ATOM     32  H   UNL     1      19.229 -25.155  41.494  1.00  0.00     0.211 HD
ENDBRANCH   5  31
BRANCH   3  33
ATOM     33  C   UNL     1      18.256 -26.005  36.637  1.00  0.00     0.171 C 
BRANCH  33  34
ATOM     34  O   UNL     1      17.334 -25.385  35.729  1.00  0.00    -0.388 OA
ATOM     35  H   UNL     1      16.578 -25.137  36.306  1.00  0.00     0.211 HD
ENDBRANCH  33  34
BRANCH  33  36
ATOM     36  C   UNL     1      19.055 -27.051  35.845  1.00  0.00     0.190 C 
BRANCH  36  37
ATOM     37  O   UNL     1      20.440 -26.920  36.185  1.00  0.00    -0.394 OA
ATOM     38  H   UNL     1      20.637 -25.953  36.090  1.00  0.00     0.210 HD
ENDBRANCH  36  37
ENDBRANCH  33  36
ENDBRANCH   3  33
BRANCH   4  39
ATOM     39  O   UNL     1      16.734 -24.419  38.717  1.00  0.00    -0.387 OA
ATOM     40  H   UNL     1      15.764 -24.482  38.670  1.00  0.00     0.211 HD
ENDBRANCH   4  39
TORSDOF 12
ENDMDL
MODEL 2
REMARK VINA RESULT:    -8.281      2.077      2.882
REMARK INTER + INTRA:         -14.433
REMARK INTER:                 -12.410
REMARK INTRA:                  -2.023
REMARK UNBOUND:                -2.037
REMARK SMILES O=c1c(O[C@@H]2O[C@H]([C@H](O)CO)[C@H](O)[C@H]2O)c(-c2ccc([O-])c(O)c2)oc2cc(O)cc(O)c12
REMARK SMILES IDX 5 1 6 2 7 3 12 4 14 5 4 6 3 7 1 8 2 9 33 10 16 11 31 12
REMARK SMILES IDX 26 13 25 14 30 15 27 16 28 17 17 18 18 19 24 20 19 21 22 22
REMARK SMILES IDX 20 23 21 24 23 25 32 27 29 29 15 31 8 33 9 34 10 36 11 37
REMARK SMILES IDX 13 39
REMARK H PARENT 23 26 32 28 29 30 15 32 9 35 11 38 13 40
ROOT
ATOM      1  C   UNL     1      19.699 -25.137  41.393  1.00  0.00     0.339 C 
ATOM      2  O   UNL     1      18.581 -25.035  40.491  1.00  0.00    -0.332 OA
ATOM      3  C   UNL     1      18.183 -23.647  40.421  1.00  0.00     0.185 C 
ATOM      4  C   UNL     1      18.531 -23.111  41.812  1.00  0.00     0.181 C 
ATOM      5  C   UNL     1      19.866 -23.779  42.084  1.00  0.00     0.214 C 
ENDROOT
BRANCH   1   6
ATOM      6  O   UNL     1      20.906 -25.392  40.672  1.00  0.00    -0.454 OA
BRANCH   6   7
ATOM      7  C   UNL     1      21.635 -26.462  41.151  1.00  0.00     0.214 A 
ATOM      8  O   UNL     1      22.635 -25.198  42.907  1.00  0.00    -0.285 OA
ATOM      9  C   UNL     1      22.524 -26.279  42.327  1.00  0.00     0.239 A 
ATOM     10  C   UNL     1      23.284 -27.454  42.776  1.00  0.00     0.111 A 
ATOM     11  C   UNL     1      21.647 -27.657  40.534  1.00  0.00     0.180 A 
ATOM     12  C   UNL     1      24.125 -27.403  43.894  1.00  0.00     0.134 A 
ATOM     13  C   UNL     1      23.155 -28.644  42.061  1.00  0.00     0.146 A 
ATOM     14  O   UNL     1      22.358 -28.766  40.951  1.00  0.00    -0.452 OA
ATOM     15  C   UNL     1      24.828 -28.535  44.299  1.00  0.00     0.093 A 
ATOM     16  C   UNL     1      23.857 -29.780  42.461  1.00  0.00     0.094 A 
ATOM     17  C   UNL     1      24.688 -29.717  43.577  1.00  0.00     0.123 A 
BRANCH  11  18
ATOM     18  C   UNL     1      20.836 -27.877  39.328  1.00  0.00     0.025 A 
ATOM     19  C   UNL     1      21.438 -27.894  38.064  1.00  0.00     0.012 A 
ATOM     20  C   UNL     1      19.451 -27.976  39.416  1.00  0.00     0.057 A 
ATOM     21  C   UNL     1      20.654 -27.935  36.902  1.00  0.00    -0.004 A 
ATOM     22  C   UNL     1      18.706 -28.005  38.240  1.00  0.00     0.108 A 
ATOM     23  C   UNL     1      19.252 -27.948  36.938  1.00  0.00    -0.066 A 
ATOM     24  O   UNL     1      18.520 -27.866  35.892  1.00  0.00    -0.870 OA
BRANCH  22  25
ATOM     25  O   UNL     1      17.333 -28.040  38.323  1.00  0.00    -0.509 OA
ATOM     26  H   UNL     1      17.213 -27.306  38.976  1.00  0.00     0.293 HD
ENDBRANCH  22  25
ENDBRANCH  11  18
BRANCH  12  27
ATOM     27  O   UNL     1      24.306 -26.269  44.642  1.00  0.00    -0.507 OA
ATOM     28  H   UNL     1      23.564 -25.655  44.451  1.00  0.00     0.293 HD
ENDBRANCH  12  27
BRANCH  17  29
ATOM     29  O   UNL     1      25.358 -30.849  43.936  1.00  0.00    -0.508 OA
ATOM     30  H   UNL     1      25.129 -31.559  43.314  1.00  0.00     0.293 HD
ENDBRANCH  17  29
ENDBRANCH   6   7
ENDBRANCH   1   6
BRANCH   5  31
ATOM     31  O   UNL     1      20.116 -23.886  43.491  1.00  0.00    -0.384 OA
ATOM     32  H   UNL     1      20.585 -23.063  43.746  1.00  0.00     0.211 HD
ENDBRANCH   5  31
BRANCH   3  33
ATOM     33  C   UNL     1      18.856 -22.954  39.218  1.00  0.00     0.171 C 
BRANCH  33  34
ATOM     34  O   UNL     1      18.160 -21.754  38.854  1.00  0.00    -0.388 OA
ATOM     35  H   UNL     1      17.549 -22.051  38.145  1.00  0.00     0.211 HD
ENDBRANCH  33  34
BRANCH  33  36
ATOM     36  C   UNL     1      18.885 -23.867  37.983  1.00  0.00     0.190 C 
BRANCH  36  37
ATOM     37  O   UNL     1      20.123 -24.588  37.979  1.00  0.00    -0.394 OA
ATOM     38  H   UNL     1      20.342 -24.729  38.935  1.00  0.00     0.210 HD
ENDBRANCH  36  37
ENDBRANCH  33  36
ENDBRANCH   3  33
BRANCH   4  39
ATOM     39  O   UNL     1      18.604 -21.705  41.963  1.00  0.00    -0.387 OA
ATOM     40  H   UNL     1      17.914 -21.333  41.386  1.00  0.00     0.211 HD
ENDBRANCH   4  39
TORSDOF 12
ENDMDL
MODEL 3
REMARK VINA RESULT:    -8.132      2.183      3.912
REMARK INTER + INTRA:         -14.210
REMARK INTER:                 -12.146
REMARK INTRA:                  -2.065
REMARK UNBOUND:                -2.037
REMARK SMILES O=c1c(O[C@@H]2O[C@H]([C@H](O)CO)[C@H](O)[C@H]2O)c(-c2ccc([O-])c(O)c2)oc2cc(O)cc(O)c12
REMARK SMILES IDX 5 1 6 2 7 3 12 4 14 5 4 6 3 7 1 8 2 9 33 10 16 11 31 12
REMARK SMILES IDX 26 13 25 14 30 15 27 16 28 17 17 18 18 19 24 20 19 21 22 22
REMARK SMILES IDX 20 23 21 24 23 25 32 27 29 29 15 31 8 33 9 34 10 36 11 37
REMARK SMILES IDX 13 39
REMARK H PARENT 23 26 32 28 29 30 15 32 9 35 11 38 13 40
ROOT
ATOM      1  C   UNL     1      20.687 -24.855  40.787  1.00  0.00     0.339 C 
ATOM      2  O   UNL     1      20.832 -23.822  41.779  1.00  0.00    -0.332 OA
ATOM      3  C   UNL     1      19.790 -22.843  41.567  1.00  0.00     0.185 C 
ATOM      4  C   UNL     1      19.561 -22.896  40.054  1.00  0.00     0.181 C 
ATOM      5  C   UNL     1      19.637 -24.385  39.774  1.00  0.00     0.214 C 
ENDROOT
BRANCH   1   6
ATOM      6  O   UNL     1      20.190 -26.057  41.379  1.00  0.00    -0.454 OA
BRANCH   6   7
ATOM      7  C   UNL     1      21.140 -27.047  41.529  1.00  0.00     0.214 A 
ATOM      8  O   UNL     1      21.978 -26.153  43.574  1.00  0.00    -0.285 OA
ATOM      9  C   UNL     1      22.045 -27.025  42.707  1.00  0.00     0.239 A 
ATOM     10  C   UNL     1      23.045 -28.099  42.798  1.00  0.00     0.111 A 
ATOM     11  C   UNL     1      21.348 -27.991  40.593  1.00  0.00     0.180 A 
ATOM     12  C   UNL     1      23.925 -28.195  43.883  1.00  0.00     0.134 A 
ATOM     13  C   UNL     1      23.108 -29.039  41.770  1.00  0.00     0.146 A 
ATOM     14  O   UNL     1      22.285 -29.003  40.673  1.00  0.00    -0.452 OA
ATOM     15  C   UNL     1      24.858 -29.228  43.944  1.00  0.00     0.093 A 
ATOM     16  C   UNL     1      24.041 -30.075  41.825  1.00  0.00     0.094 A 
ATOM     17  C   UNL     1      24.907 -30.161  42.912  1.00  0.00     0.123 A 
BRANCH  11  18
ATOM     18  C   UNL     1      20.525 -28.023  39.376  1.00  0.00     0.025 A 
ATOM     19  C   UNL     1      21.128 -27.966  38.113  1.00  0.00     0.012 A 
ATOM     20  C   UNL     1      19.137 -28.012  39.461  1.00  0.00     0.057 A 
ATOM     21  C   UNL     1      20.348 -27.826  36.957  1.00  0.00    -0.004 A 
ATOM     22  C   UNL     1      18.396 -27.863  38.291  1.00  0.00     0.108 A 
ATOM     23  C   UNL     1      18.949 -27.725  36.999  1.00  0.00    -0.066 A 
ATOM     24  O   UNL     1      18.230 -27.479  35.970  1.00  0.00    -0.870 OA
BRANCH  22  25
ATOM     25  O   UNL     1      17.024 -27.790  38.377  1.00  0.00    -0.509 OA
ATOM     26  H   UNL     1      16.921 -28.166  39.287  1.00  0.00     0.293 HD
ENDBRANCH  22  25
ENDBRANCH  11  18
BRANCH  12  27
ATOM     27  O   UNL     1      23.926 -27.306  44.925  1.00  0.00    -0.507 OA
ATOM     28  H   UNL     1      23.006 -27.228  45.261  1.00  0.00     0.293 HD
ENDBRANCH  12  27
BRANCH  17  29
ATOM     29  O   UNL     1      25.805 -31.187  42.929  1.00  0.00    -0.508 OA
ATOM     30  H   UNL     1      25.740 -31.646  43.782  1.00  0.00     0.293 HD
ENDBRANCH  17  29
ENDBRANCH   6   7
ENDBRANCH   1   6
BRANCH   5  31
ATOM     31  O   UNL     1      20.008 -24.640  38.414  1.00  0.00    -0.384 OA
ATOM     32  H   UNL     1      20.712 -25.323  38.448  1.00  0.00     0.211 HD
ENDBRANCH   5  31
BRANCH   3  33
ATOM     33  C   UNL     1      18.575 -23.147  42.467  1.00  0.00     0.171 C 
BRANCH  33  34
ATOM     34  O   UNL     1      17.684 -22.024  42.534  1.00  0.00    -0.388 OA
ATOM     35  H   UNL     1      17.352 -21.942  41.613  1.00  0.00     0.211 HD
ENDBRANCH  33  34
BRANCH  33  36
ATOM     36  C   UNL     1      19.005 -23.485  43.903  1.00  0.00     0.190 C 
BRANCH  36  37
ATOM     37  O   UNL     1      19.300 -24.885  43.973  1.00  0.00    -0.394 OA
ATOM     38  H   UNL     1      19.714 -25.016  44.864  1.00  0.00     0.210 HD
ENDBRANCH  36  37
ENDBRANCH  33  36
ENDBRANCH   3  33
BRANCH   4  39
ATOM     39  O   UNL     1      18.361 -22.327  39.562  1.00  0.00    -0.387 OA
ATOM     40  H   UNL     1      18.092 -22.873  38.803  1.00  0.00     0.211 HD
ENDBRANCH   4  39
TORSDOF 12
ENDMDL
MODEL 4
REMARK VINA RESULT:    -8.091      0.868      2.216
REMARK INTER + INTRA:         -14.149
REMARK INTER:                 -12.428
REMARK INTRA:                  -1.721
REMARK UNBOUND:                -2.037
REMARK SMILES O=c1c(O[C@@H]2O[C@H]([C@H](O)CO)[C@H](O)[C@H]2O)c(-c2ccc([O-])c(O)c2)oc2cc(O)cc(O)c12
REMARK SMILES IDX 5 1 6 2 7 3 12 4 14 5 4 6 3 7 1 8 2 9 33 10 16 11 31 12
REMARK SMILES IDX 26 13 25 14 30 15 27 16 28 17 17 18 18 19 24 20 19 21 22 22
REMARK SMILES IDX 20 23 21 24 23 25 32 27 29 29 15 31 8 33 9 34 10 36 11 37
REMARK SMILES IDX 13 39
REMARK H PARENT 23 26 32 28 29 30 15 32 9 35 11 38 13 40
ROOT
ATOM      1  C   UNL     1      20.471 -26.283  38.648  1.00  0.00     0.339 C 
ATOM      2  O   UNL     1      20.148 -24.955  39.101  1.00  0.00    -0.332 OA
ATOM      3  C   UNL     1      19.056 -24.456  38.296  1.00  0.00     0.185 C 
ATOM      4  C   UNL     1      19.278 -25.136  36.943  1.00  0.00     0.181 C 
ATOM      5  C   UNL     1      19.686 -26.537  37.356  1.00  0.00     0.214 C 
ENDROOT
BRANCH   1   6
ATOM      6  O   UNL     1      20.042 -27.259  39.599  1.00  0.00    -0.454 OA
BRANCH   6   7
ATOM      7  C   UNL     1      21.042 -27.709  40.436  1.00  0.00     0.214 A 
ATOM      8  O   UNL     1      21.175 -25.657  41.642  1.00  0.00    -0.285 OA
ATOM      9  C   UNL     1      21.589 -26.806  41.481  1.00  0.00     0.239 A 
ATOM     10  C   UNL     1      22.664 -27.342  42.328  1.00  0.00     0.111 A 
ATOM     11  C   UNL     1      21.619 -28.915  40.283  1.00  0.00     0.180 A 
ATOM     12  C   UNL     1      23.227 -26.589  43.366  1.00  0.00     0.134 A 
ATOM     13  C   UNL     1      23.126 -28.633  42.080  1.00  0.00     0.146 A 
ATOM     14  O   UNL     1      22.629 -29.425  41.075  1.00  0.00    -0.452 OA
ATOM     15  C   UNL     1      24.242 -27.126  44.155  1.00  0.00     0.093 A 
ATOM     16  C   UNL     1      24.142 -29.176  42.866  1.00  0.00     0.094 A 
ATOM     17  C   UNL     1      24.691 -28.419  43.898  1.00  0.00     0.123 A 
BRANCH  11  18
ATOM     18  C   UNL     1      21.163 -29.826  39.224  1.00  0.00     0.025 A 
ATOM     19  C   UNL     1      21.660 -29.700  37.920  1.00  0.00     0.012 A 
ATOM     20  C   UNL     1      20.163 -30.760  39.476  1.00  0.00     0.057 A 
ATOM     21  C   UNL     1      21.110 -30.451  36.872  1.00  0.00    -0.004 A 
ATOM     22  C   UNL     1      19.636 -31.480  38.408  1.00  0.00     0.108 A 
ATOM     23  C   UNL     1      20.043 -31.343  37.063  1.00  0.00    -0.066 A 
ATOM     24  O   UNL     1      19.451 -31.946  36.103  1.00  0.00    -0.870 OA
BRANCH  22  25
ATOM     25  O   UNL     1      18.604 -32.360  38.644  1.00  0.00    -0.509 OA
ATOM     26  H   UNL     1      18.764 -32.509  39.609  1.00  0.00     0.293 HD
ENDBRANCH  22  25
ENDBRANCH  11  18
BRANCH  12  27
ATOM     27  O   UNL     1      22.829 -25.313  43.665  1.00  0.00    -0.507 OA
ATOM     28  H   UNL     1      22.633 -24.848  42.822  1.00  0.00     0.293 HD
ENDBRANCH  12  27
BRANCH  17  29
ATOM     29  O   UNL     1      25.683 -28.984  44.644  1.00  0.00    -0.508 OA
ATOM     30  H   UNL     1      26.503 -28.482  44.506  1.00  0.00     0.293 HD
ENDBRANCH  17  29
ENDBRANCH   6   7
ENDBRANCH   1   6
BRANCH   5  31
ATOM     31  O   UNL     1      20.465 -27.174  36.336  1.00  0.00    -0.384 OA
ATOM     32  H   UNL     1      20.132 -26.824  35.481  1.00  0.00     0.211 HD
ENDBRANCH   5  31
BRANCH   3  33
ATOM     33  C   UNL     1      17.707 -24.720  38.997  1.00  0.00     0.171 C 
BRANCH  33  34
ATOM     34  O   UNL     1      16.642 -23.998  38.362  1.00  0.00    -0.388 OA
ATOM     35  H   UNL     1      16.280 -23.443  39.086  1.00  0.00     0.211 HD
ENDBRANCH  33  34
BRANCH  33  36
ATOM     36  C   UNL     1      17.742 -24.293  40.472  1.00  0.00     0.190 C 
BRANCH  36  37
ATOM     37  O   UNL     1      18.311 -25.360  41.241  1.00  0.00    -0.394 OA
ATOM     38  H   UNL     1      19.150 -25.597  40.770  1.00  0.00     0.210 HD
ENDBRANCH  36  37
ENDBRANCH  33  36
ENDBRANCH   3  33
BRANCH   4  39
ATOM     39  O   UNL     1      18.187 -25.149  36.040  1.00  0.00    -0.387 OA
ATOM     40  H   UNL     1      18.231 -26.002  35.572  1.00  0.00     0.211 HD
ENDBRANCH   4  39
TORSDOF 12
ENDMDL
MODEL 5
REMARK VINA RESULT:    -8.027      1.368      2.124
REMARK INTER + INTRA:         -14.052
REMARK INTER:                 -12.582
REMARK INTRA:                  -1.470
REMARK UNBOUND:                -2.037
REMARK SMILES O=c1c(O[C@@H]2O[C@H]([C@H](O)CO)[C@H](O)[C@H]2O)c(-c2ccc([O-])c(O)c2)oc2cc(O)cc(O)c12
REMARK SMILES IDX 5 1 6 2 7 3 12 4 14 5 4 6 3 7 1 8 2 9 33 10 16 11 31 12
REMARK SMILES IDX 26 13 25 14 30 15 27 16 28 17 17 18 18 19 24 20 19 21 22 22
REMARK SMILES IDX 20 23 21 24 23 25 32 27 29 29 15 31 8 33 9 34 10 36 11 37
REMARK SMILES IDX 13 39
REMARK H PARENT 23 26 32 28 29 30 15 32 9 35 11 38 13 40
ROOT
ATOM      1  C   UNL     1      19.368 -25.122  40.499  1.00  0.00     0.339 C 
ATOM      2  O   UNL     1      18.218 -25.896  40.111  1.00  0.00    -0.332 OA
ATOM      3  C   UNL     1      17.411 -25.091  39.223  1.00  0.00     0.185 C 
ATOM      4  C   UNL     1      17.666 -23.664  39.713  1.00  0.00     0.181 C 
ATOM      5  C   UNL     1      19.155 -23.688  40.000  1.00  0.00     0.214 C 
ENDROOT
BRANCH   1   6
ATOM      6  O   UNL     1      20.547 -25.617  39.862  1.00  0.00    -0.454 OA
BRANCH   6   7
ATOM      7  C   UNL     1      21.340 -26.403  40.674  1.00  0.00     0.214 A 
ATOM      8  O   UNL     1      21.815 -24.630  42.195  1.00  0.00    -0.285 OA
ATOM      9  C   UNL     1      21.975 -25.810  41.879  1.00  0.00     0.239 A 
ATOM     10  C   UNL     1      22.820 -26.697  42.691  1.00  0.00     0.111 A 
ATOM     11  C   UNL     1      21.644 -27.677  40.366  1.00  0.00     0.180 A 
ATOM     12  C   UNL     1      23.438 -26.251  43.866  1.00  0.00     0.134 A 
ATOM     13  C   UNL     1      23.002 -28.013  42.270  1.00  0.00     0.146 A 
ATOM     14  O   UNL     1      22.436 -28.516  41.125  1.00  0.00    -0.452 OA
ATOM     15  C   UNL     1      24.228 -27.117  44.618  1.00  0.00     0.093 A 
ATOM     16  C   UNL     1      23.794 -28.884  43.018  1.00  0.00     0.094 A 
ATOM     17  C   UNL     1      24.400 -28.429  44.186  1.00  0.00     0.123 A 
BRANCH  11  18
ATOM     18  C   UNL     1      21.096 -28.298  39.152  1.00  0.00     0.025 A 
ATOM     19  C   UNL     1      20.443 -29.534  39.222  1.00  0.00     0.012 A 
ATOM     20  C   UNL     1      21.304 -27.715  37.905  1.00  0.00     0.057 A 
ATOM     21  C   UNL     1      20.067 -30.209  38.051  1.00  0.00    -0.004 A 
ATOM     22  C   UNL     1      20.925 -28.420  36.766  1.00  0.00     0.108 A 
ATOM     23  C   UNL     1      20.332 -29.702  36.770  1.00  0.00    -0.066 A 
ATOM     24  O   UNL     1      20.105 -30.355  35.695  1.00  0.00    -0.870 OA
BRANCH  22  25
ATOM     25  O   UNL     1      21.185 -27.874  35.529  1.00  0.00    -0.509 OA
ATOM     26  H   UNL     1      20.701 -28.538  34.978  1.00  0.00     0.293 HD
ENDBRANCH  22  25
ENDBRANCH  11  18
BRANCH  12  27
ATOM     27  O   UNL     1      23.309 -24.972  44.340  1.00  0.00    -0.507 OA
ATOM     28  H   UNL     1      23.823 -24.375  43.752  1.00  0.00     0.293 HD
ENDBRANCH  12  27
BRANCH  17  29
ATOM     29  O   UNL     1      25.166 -29.311  44.889  1.00  0.00    -0.508 OA
ATOM     30  H   UNL     1      24.581 -29.933  45.353  1.00  0.00     0.293 HD
ENDBRANCH  17  29
ENDBRANCH   6   7
ENDBRANCH   1   6
BRANCH   5  31
ATOM     31  O   UNL     1      19.515 -22.693  40.965  1.00  0.00    -0.384 OA
ATOM     32  H   UNL     1      20.460 -22.852  41.180  1.00  0.00     0.211 HD
ENDBRANCH   5  31
BRANCH   3  33
ATOM     33  C   UNL     1      17.763 -25.397  37.752  1.00  0.00     0.171 C 
BRANCH  33  34
ATOM     34  O   UNL     1      16.846 -24.754  36.854  1.00  0.00    -0.388 OA
ATOM     35  H   UNL     1      16.195 -24.332  37.457  1.00  0.00     0.211 HD
ENDBRANCH  33  34
BRANCH  33  36
ATOM     36  C   UNL     1      17.717 -26.905  37.461  1.00  0.00     0.190 C 
BRANCH  36  37
ATOM     37  O   UNL     1      16.609 -27.472  38.170  1.00  0.00    -0.394 OA
ATOM     38  H   UNL     1      15.834 -26.900  37.935  1.00  0.00     0.210 HD
ENDBRANCH  36  37
ENDBRANCH  33  36
ENDBRANCH   3  33
BRANCH   4  39
ATOM     39  O   UNL     1      17.315 -22.608  38.837  1.00  0.00    -0.387 OA
ATOM     40  H   UNL     1      16.647 -22.077  39.305  1.00  0.00     0.211 HD
ENDBRANCH   4  39
TORSDOF 12
ENDMDL
MODEL 6
REMARK VINA RESULT:    -7.956      2.789      5.916
REMARK INTER + INTRA:         -13.946
REMARK INTER:                 -11.842
REMARK INTRA:                  -2.104
REMARK UNBOUND:                -2.037
REMARK SMILES O=c1c(O[C@@H]2O[C@H]([C@H](O)CO)[C@H](O)[C@H]2O)c(-c2ccc([O-])c(O)c2)oc2cc(O)cc(O)c12
REMARK SMILES IDX 5 1 6 2 7 3 12 4 14 5 4 6 3 7 1 8 2 9 33 10 16 11 31 12
REMARK SMILES IDX 26 13 25 14 30 15 27 16 28 17 17 18 18 19 24 20 19 21 22 22
REMARK SMILES IDX 20 23 21 24 23 25 32 27 29 29 15 31 8 33 9 34 10 36 11 37
REMARK SMILES IDX 13 39
REMARK H PARENT 23 26 32 28 29 30 15 32 9 35 11 38 13 40
ROOT
ATOM      1  C   UNL     1      19.136 -25.153  41.184  1.00  0.00     0.339 C 
ATOM      2  O   UNL     1      18.724 -26.105  40.186  1.00  0.00    -0.332 OA
ATOM      3  C   UNL     1      17.862 -25.428  39.244  1.00  0.00     0.185 C 
ATOM      4  C   UNL     1      17.175 -24.362  40.101  1.00  0.00     0.181 C 
ATOM      5  C   UNL     1      18.314 -23.876  40.976  1.00  0.00     0.214 C 
ENDROOT
BRANCH   1   6
ATOM      6  O   UNL     1      20.510 -24.802  41.010  1.00  0.00    -0.454 OA
BRANCH   6   7
ATOM      7  C   UNL     1      21.378 -25.499  41.826  1.00  0.00     0.214 A 
ATOM      8  O   UNL     1      21.576 -27.331  40.315  1.00  0.00    -0.285 OA
ATOM      9  C   UNL     1      21.890 -26.824  41.392  1.00  0.00     0.239 A 
ATOM     10  C   UNL     1      22.798 -27.521  42.315  1.00  0.00     0.111 A 
ATOM     11  C   UNL     1      21.711 -25.068  43.057  1.00  0.00     0.180 A 
ATOM     12  C   UNL     1      23.368 -28.759  41.992  1.00  0.00     0.134 A 
ATOM     13  C   UNL     1      23.091 -26.923  43.540  1.00  0.00     0.146 A 
ATOM     14  O   UNL     1      22.564 -25.717  43.928  1.00  0.00    -0.452 OA
ATOM     15  C   UNL     1      24.229 -29.392  42.884  1.00  0.00     0.093 A 
ATOM     16  C   UNL     1      23.952 -27.553  44.438  1.00  0.00     0.094 A 
ATOM     17  C   UNL     1      24.514 -28.782  44.103  1.00  0.00     0.123 A 
BRANCH  11  18
ATOM     18  C   UNL     1      21.182 -23.794  43.564  1.00  0.00     0.025 A 
ATOM     19  C   UNL     1      20.220 -23.783  44.582  1.00  0.00     0.012 A 
ATOM     20  C   UNL     1      21.556 -22.589  42.978  1.00  0.00     0.057 A 
ATOM     21  C   UNL     1      19.589 -22.588  44.954  1.00  0.00    -0.004 A 
ATOM     22  C   UNL     1      20.901 -21.424  43.368  1.00  0.00     0.108 A 
ATOM     23  C   UNL     1      19.871 -21.362  44.333  1.00  0.00    -0.066 A 
ATOM     24  O   UNL     1      19.224 -20.285  44.575  1.00  0.00    -0.870 OA
BRANCH  22  25
ATOM     25  O   UNL     1      21.224 -20.239  42.746  1.00  0.00    -0.509 OA
ATOM     26  H   UNL     1      22.046 -20.543  42.285  1.00  0.00     0.293 HD
ENDBRANCH  22  25
ENDBRANCH  11  18
BRANCH  12  27
ATOM     27  O   UNL     1      23.122 -29.409  40.811  1.00  0.00    -0.507 OA
ATOM     28  H   UNL     1      22.327 -29.004  40.398  1.00  0.00     0.293 HD
ENDBRANCH  12  27
BRANCH  17  29
ATOM     29  O   UNL     1      25.350 -29.367  45.008  1.00  0.00    -0.508 OA
ATOM     30  H   UNL     1      25.406 -28.799  45.794  1.00  0.00     0.293 HD
ENDBRANCH  17  29
ENDBRANCH   6   7
ENDBRANCH   1   6
BRANCH   5  31
ATOM     31  O   UNL     1      17.827 -23.309  42.198  1.00  0.00    -0.384 OA
ATOM     32  H   UNL     1      16.900 -23.617  42.289  1.00  0.00     0.211 HD
ENDBRANCH   5  31
BRANCH   3  33
ATOM     33  C   UNL     1      18.675 -24.930  38.031  1.00  0.00     0.171 C 
BRANCH  33  34
ATOM     34  O   UNL     1      17.813 -24.546  36.950  1.00  0.00    -0.388 OA
ATOM     35  H   UNL     1      17.688 -25.383  36.451  1.00  0.00     0.211 HD
ENDBRANCH  33  34
BRANCH  33  36
ATOM     36  C   UNL     1      19.627 -26.015  37.504  1.00  0.00     0.190 C 
BRANCH  36  37
ATOM     37  O   UNL     1      20.901 -25.849  38.136  1.00  0.00    -0.394 OA
ATOM     38  H   UNL     1      20.696 -25.695  39.093  1.00  0.00     0.210 HD
ENDBRANCH  36  37
ENDBRANCH  33  36
ENDBRANCH   3  33
BRANCH   4  39
ATOM     39  O   UNL     1      16.540 -23.295  39.419  1.00  0.00    -0.387 OA
ATOM     40  H   UNL     1      17.254 -22.726  39.080  1.00  0.00     0.211 HD
ENDBRANCH   4  39
TORSDOF 12
ENDMDL
MODEL 7
REMARK VINA RESULT:    -7.893      2.623      5.829
REMARK INTER + INTRA:         -13.852
REMARK INTER:                 -11.706
REMARK INTRA:                  -2.147
REMARK UNBOUND:                -2.037
REMARK SMILES O=c1c(O[C@@H]2O[C@H]([C@H](O)CO)[C@H](O)[C@H]2O)c(-c2ccc([O-])c(O)c2)oc2cc(O)cc(O)c12
REMARK SMILES IDX 5 1 6 2 7 3 12 4 14 5 4 6 3 7 1 8 2 9 33 10 16 11 31 12
REMARK SMILES IDX 26 13 25 14 30 15 27 16 28 17 17 18 18 19 24 20 19 21 22 22
REMARK SMILES IDX 20 23 21 24 23 25 32 27 29 29 15 31 8 33 9 34 10 36 11 37
REMARK SMILES IDX 13 39
REMARK H PARENT 23 26 32 28 29 30 15 32 9 35 11 38 13 40
ROOT
ATOM      1  C   UNL     1      20.537 -25.386  39.618  1.00  0.00     0.339 C 
ATOM      2  O   UNL     1      20.059 -24.028  39.595  1.00  0.00    -0.332 OA
ATOM      3  C   UNL     1      19.009 -23.936  38.606  1.00  0.00     0.185 C 
ATOM      4  C   UNL     1      19.415 -24.980  37.564  1.00  0.00     0.181 C 
ATOM      5  C   UNL     1      19.903 -26.123  38.432  1.00  0.00     0.214 C 
ENDROOT
BRANCH   1   6
ATOM      6  O   UNL     1      20.106 -26.053  40.806  1.00  0.00    -0.454 OA
BRANCH   6   7
ATOM      7  C   UNL     1      21.136 -26.508  41.603  1.00  0.00     0.214 A 
ATOM      8  O   UNL     1      21.465 -28.489  40.321  1.00  0.00    -0.285 OA
ATOM      9  C   UNL     1      21.797 -27.800  41.286  1.00  0.00     0.239 A 
ATOM     10  C   UNL     1      22.876 -28.234  42.184  1.00  0.00     0.111 A 
ATOM     11  C   UNL     1      21.511 -25.869  42.727  1.00  0.00     0.180 A 
ATOM     12  C   UNL     1      23.589 -29.418  41.959  1.00  0.00     0.134 A 
ATOM     13  C   UNL     1      23.186 -27.438  43.286  1.00  0.00     0.146 A 
ATOM     14  O   UNL     1      22.525 -26.271  43.575  1.00  0.00    -0.452 OA
ATOM     15  C   UNL     1      24.611 -29.800  42.826  1.00  0.00     0.093 A 
ATOM     16  C   UNL     1      24.207 -27.816  44.158  1.00  0.00     0.094 A 
ATOM     17  C   UNL     1      24.911 -28.994  43.920  1.00  0.00     0.123 A 
BRANCH  11  18
ATOM     18  C   UNL     1      20.849 -24.619  43.126  1.00  0.00     0.025 A 
ATOM     19  C   UNL     1      19.599 -24.651  43.757  1.00  0.00     0.012 A 
ATOM     20  C   UNL     1      21.406 -23.388  42.797  1.00  0.00     0.057 A 
ATOM     21  C   UNL     1      18.887 -23.466  43.988  1.00  0.00    -0.004 A 
ATOM     22  C   UNL     1      20.664 -22.233  43.034  1.00  0.00     0.108 A 
ATOM     23  C   UNL     1      19.369 -22.208  43.597  1.00  0.00    -0.066 A 
ATOM     24  O   UNL     1      18.685 -21.132  43.691  1.00  0.00    -0.870 OA
BRANCH  22  25
ATOM     25  O   UNL     1      21.186 -21.018  42.653  1.00  0.00    -0.509 OA
ATOM     26  H   UNL     1      21.679 -20.810  43.485  1.00  0.00     0.293 HD
ENDBRANCH  22  25
ENDBRANCH  11  18
BRANCH  12  27
ATOM     27  O   UNL     1      23.338 -30.252  40.903  1.00  0.00    -0.507 OA
ATOM     28  H   UNL     1      22.979 -31.095  41.258  1.00  0.00     0.293 HD
ENDBRANCH  12  27
BRANCH  17  29
ATOM     29  O   UNL     1      25.902 -29.330  44.795  1.00  0.00    -0.508 OA
ATOM     30  H   UNL     1      25.942 -30.298  44.866  1.00  0.00     0.293 HD
ENDBRANCH  17  29
ENDBRANCH   6   7
ENDBRANCH   1   6
BRANCH   5  31
ATOM     31  O   UNL     1      20.826 -26.958  37.724  1.00  0.00    -0.384 OA
ATOM     32  H   UNL     1      20.448 -27.863  37.748  1.00  0.00     0.211 HD
ENDBRANCH   5  31
BRANCH   3  33
ATOM     33  C   UNL     1      17.628 -24.114  39.270  1.00  0.00     0.171 C 
BRANCH  33  34
ATOM     34  O   UNL     1      16.568 -23.786  38.360  1.00  0.00    -0.388 OA
ATOM     35  H   UNL     1      16.088 -24.636  38.254  1.00  0.00     0.211 HD
ENDBRANCH  33  34
BRANCH  33  36
ATOM     36  C   UNL     1      17.474 -23.215  40.506  1.00  0.00     0.190 C 
BRANCH  36  37
ATOM     37  O   UNL     1      18.174 -21.988  40.267  1.00  0.00    -0.394 OA
ATOM     38  H   UNL     1      18.414 -22.013  39.306  1.00  0.00     0.210 HD
ENDBRANCH  36  37
ENDBRANCH  33  36
ENDBRANCH   3  33
BRANCH   4  39
ATOM     39  O   UNL     1      18.420 -25.399  36.648  1.00  0.00    -0.387 OA
ATOM     40  H   UNL     1      18.704 -25.082  35.772  1.00  0.00     0.211 HD
ENDBRANCH   4  39
TORSDOF 12
ENDMDL
MODEL 8
REMARK VINA RESULT:    -7.779      1.555      4.869
REMARK INTER + INTRA:         -13.681
REMARK INTER:                 -12.680
REMARK INTRA:                  -1.001
REMARK UNBOUND:                -2.037
REMARK SMILES O=c1c(O[C@@H]2O[C@H]([C@H](O)CO)[C@H](O)[C@H]2O)c(-c2ccc([O-])c(O)c2)oc2cc(O)cc(O)c12
REMARK SMILES IDX 5 1 6 2 7 3 12 4 14 5 4 6 3 7 1 8 2 9 33 10 16 11 31 12
REMARK SMILES IDX 26 13 25 14 30 15 27 16 28 17 17 18 18 19 24 20 19 21 22 22
REMARK SMILES IDX 20 23 21 24 23 25 32 27 29 29 15 31 8 33 9 34 10 36 11 37
REMARK SMILES IDX 13 39
REMARK H PARENT 23 26 32 28 29 30 15 32 9 35 11 38 13 40
ROOT
ATOM      1  C   UNL     1      20.738 -30.092  37.670  1.00  0.00     0.339 C 
ATOM      2  O   UNL     1      21.265 -29.534  36.451  1.00  0.00    -0.332 OA
ATOM      3  C   UNL     1      20.623 -30.195  35.338  1.00  0.00     0.185 C 
ATOM      4  C   UNL     1      20.343 -31.600  35.877  1.00  0.00     0.181 C 
ATOM      5  C   UNL     1      19.888 -31.311  37.294  1.00  0.00     0.214 C 
ENDROOT
BRANCH   1   6
ATOM      6  O   UNL     1      19.872 -29.159  38.319  1.00  0.00    -0.454 OA
BRANCH   6   7
ATOM      7  C   UNL     1      20.507 -28.341  39.231  1.00  0.00     0.214 A 
ATOM      8  O   UNL     1      21.834 -30.105  40.130  1.00  0.00    -0.285 OA
ATOM      9  C   UNL     1      21.522 -28.914  40.152  1.00  0.00     0.239 A 
ATOM     10  C   UNL     1      22.149 -27.991  41.110  1.00  0.00     0.111 A 
ATOM     11  C   UNL     1      20.173 -27.047  39.390  1.00  0.00     0.180 A 
ATOM     12  C   UNL     1      23.143 -28.417  41.999  1.00  0.00     0.134 A 
ATOM     13  C   UNL     1      21.732 -26.661  41.123  1.00  0.00     0.146 A 
ATOM     14  O   UNL     1      20.758 -26.174  40.288  1.00  0.00    -0.452 OA
ATOM     15  C   UNL     1      23.721 -27.518  42.892  1.00  0.00     0.093 A 
ATOM     16  C   UNL     1      22.307 -25.756  42.015  1.00  0.00     0.094 A 
ATOM     17  C   UNL     1      23.297 -26.192  42.892  1.00  0.00     0.123 A 
BRANCH  11  18
ATOM     18  C   UNL     1      19.129 -26.442  38.551  1.00  0.00     0.025 A 
ATOM     19  C   UNL     1      19.439 -25.382  37.690  1.00  0.00     0.012 A 
ATOM     20  C   UNL     1      17.803 -26.847  38.671  1.00  0.00     0.057 A 
ATOM     21  C   UNL     1      18.423 -24.692  37.014  1.00  0.00    -0.004 A 
ATOM     22  C   UNL     1      16.822 -26.131  37.991  1.00  0.00     0.108 A 
ATOM     23  C   UNL     1      17.065 -25.009  37.169  1.00  0.00    -0.066 A 
ATOM     24  O   UNL     1      16.119 -24.318  36.656  1.00  0.00    -0.870 OA
BRANCH  22  25
ATOM     25  O   UNL     1      15.503 -26.490  38.155  1.00  0.00    -0.509 OA
ATOM     26  H   UNL     1      15.375 -26.953  37.290  1.00  0.00     0.293 HD
ENDBRANCH  22  25
ENDBRANCH  11  18
BRANCH  12  27
ATOM     27  O   UNL     1      23.598 -29.708  42.048  1.00  0.00    -0.507 OA
ATOM     28  H   UNL     1      24.237 -29.779  42.791  1.00  0.00     0.293 HD
ENDBRANCH  12  27
BRANCH  17  29
ATOM     29  O   UNL     1      23.834 -25.277  43.749  1.00  0.00    -0.508 OA
ATOM     30  H   UNL     1      24.170 -25.743  44.533  1.00  0.00     0.293 HD
ENDBRANCH  17  29
ENDBRANCH   6   7
ENDBRANCH   1   6
BRANCH   5  31
ATOM     31  O   UNL     1      20.104 -32.438  38.151  1.00  0.00    -0.384 OA
ATOM     32  H   UNL     1      20.529 -32.086  38.962  1.00  0.00     0.211 HD
ENDBRANCH   5  31
BRANCH   3  33
ATOM     33  C   UNL     1      19.406 -29.378  34.856  1.00  0.00     0.171 C 
BRANCH  33  34
ATOM     34  O   UNL     1      19.049 -29.723  33.509  1.00  0.00    -0.388 OA
ATOM     35  H   UNL     1      19.575 -29.096  32.967  1.00  0.00     0.211 HD
ENDBRANCH  33  34
BRANCH  33  36
ATOM     36  C   UNL     1      19.689 -27.868  34.889  1.00  0.00     0.190 C 
BRANCH  36  37
ATOM     37  O   UNL     1      21.056 -27.653  34.517  1.00  0.00    -0.394 OA
ATOM     38  H   UNL     1      21.073 -27.758  33.531  1.00  0.00     0.210 HD
ENDBRANCH  36  37
ENDBRANCH  33  36
ENDBRANCH   3  33
BRANCH   4  39
ATOM     39  O   UNL     1      19.402 -32.388  35.170  1.00  0.00    -0.387 OA
ATOM     40  H   UNL     1      19.855 -32.695  34.365  1.00  0.00     0.211 HD
ENDBRANCH   4  39
TORSDOF 12
ENDMDL
MODEL 9
REMARK VINA RESULT:    -7.642      2.339      5.420
REMARK INTER + INTRA:         -13.476
REMARK INTER:                 -13.737
REMARK INTRA:                   0.261
REMARK UNBOUND:                -2.037
REMARK SMILES O=c1c(O[C@@H]2O[C@H]([C@H](O)CO)[C@H](O)[C@H]2O)c(-c2ccc([O-])c(O)c2)oc2cc(O)cc(O)c12
REMARK SMILES IDX 5 1 6 2 7 3 12 4 14 5 4 6 3 7 1 8 2 9 33 10 16 11 31 12
REMARK SMILES IDX 26 13 25 14 30 15 27 16 28 17 17 18 18 19 24 20 19 21 22 22
REMARK SMILES IDX 20 23 21 24 23 25 32 27 29 29 15 31 8 33 9 34 10 36 11 37
REMARK SMILES IDX 13 39
REMARK H PARENT 23 26 32 28 29 30 15 32 9 35 11 38 13 40
ROOT
ATOM      1  C   UNL     1      19.866 -27.564  39.795  1.00  0.00     0.339 C 
ATOM      2  O   UNL     1      19.163 -28.720  39.301  1.00  0.00    -0.332 OA
ATOM      3  C   UNL     1      19.788 -29.135  38.066  1.00  0.00     0.185 C 
ATOM      4  C   UNL     1      20.302 -27.821  37.474  1.00  0.00     0.181 C 
ATOM      5  C   UNL     1      20.837 -27.108  38.701  1.00  0.00     0.214 C 
ENDROOT
BRANCH   1   6
ATOM      6  O   UNL     1      20.651 -27.902  40.940  1.00  0.00    -0.454 OA
BRANCH   6   7
ATOM      7  C   UNL     1      20.763 -26.886  41.867  1.00  0.00     0.214 A 
ATOM      8  O   UNL     1      18.824 -25.743  41.084  1.00  0.00    -0.285 OA
ATOM      9  C   UNL     1      19.767 -25.784  41.875  1.00  0.00     0.239 A 
ATOM     10  C   UNL     1      19.953 -24.725  42.877  1.00  0.00     0.111 A 
ATOM     11  C   UNL     1      21.805 -26.798  42.714  1.00  0.00     0.180 A 
ATOM     12  C   UNL     1      19.054 -23.659  42.997  1.00  0.00     0.134 A 
ATOM     13  C   UNL     1      21.059 -24.796  43.723  1.00  0.00     0.146 A 
ATOM     14  O   UNL     1      21.987 -25.806  43.658  1.00  0.00    -0.452 OA
ATOM     15  C   UNL     1      19.255 -22.673  43.960  1.00  0.00     0.093 A 
ATOM     16  C   UNL     1      21.266 -23.811  44.689  1.00  0.00     0.094 A 
ATOM     17  C   UNL     1      20.362 -22.758  44.800  1.00  0.00     0.123 A 
BRANCH  11  18
ATOM     18  C   UNL     1      22.856 -27.825  42.706  1.00  0.00     0.025 A 
ATOM     19  C   UNL     1      22.956 -28.726  41.639  1.00  0.00     0.012 A 
ATOM     20  C   UNL     1      23.703 -27.978  43.800  1.00  0.00     0.057 A 
ATOM     21  C   UNL     1      23.844 -29.810  41.702  1.00  0.00    -0.004 A 
ATOM     22  C   UNL     1      24.565 -29.071  43.830  1.00  0.00     0.108 A 
ATOM     23  C   UNL     1      24.657 -30.054  42.820  1.00  0.00    -0.066 A 
ATOM     24  O   UNL     1      25.383 -31.099  42.946  1.00  0.00    -0.870 OA
BRANCH  22  25
ATOM     25  O   UNL     1      25.360 -29.261  44.937  1.00  0.00    -0.509 OA
ATOM     26  H   UNL     1      26.113 -29.723  44.492  1.00  0.00     0.293 HD
ENDBRANCH  22  25
ENDBRANCH  11  18
BRANCH  12  27
ATOM     27  O   UNL     1      17.950 -23.519  42.198  1.00  0.00    -0.507 OA
ATOM     28  H   UNL     1      17.151 -23.625  42.760  1.00  0.00     0.293 HD
ENDBRANCH  12  27
BRANCH  17  29
ATOM     29  O   UNL     1      20.600 -21.815  45.756  1.00  0.00    -0.508 OA
ATOM     30  H   UNL     1      20.708 -22.259  46.613  1.00  0.00     0.293 HD
ENDBRANCH  17  29
ENDBRANCH   6   7
ENDBRANCH   1   6
BRANCH   5  31
ATOM     31  O   UNL     1      20.853 -25.688  38.513  1.00  0.00    -0.384 OA
ATOM     32  H   UNL     1      20.827 -25.294  39.411  1.00  0.00     0.211 HD
ENDBRANCH   5  31
BRANCH   3  33
ATOM     33  C   UNL     1      20.835 -30.235  38.336  1.00  0.00     0.171 C 
BRANCH  33  34
ATOM     34  O   UNL     1      21.186 -30.926  37.128  1.00  0.00    -0.388 OA
ATOM     35  H   UNL     1      21.774 -30.290  36.664  1.00  0.00     0.211 HD
ENDBRANCH  33  34
BRANCH  33  36
ATOM     36  C   UNL     1      20.314 -31.280  39.334  1.00  0.00     0.190 C 
BRANCH  36  37
ATOM     37  O   UNL     1      20.098 -32.511  38.633  1.00  0.00    -0.394 OA
ATOM     38  H   UNL     1      19.260 -32.879  39.013  1.00  0.00     0.210 HD
ENDBRANCH  36  37
ENDBRANCH  33  36
ENDBRANCH   3  33
BRANCH   4  39
ATOM     39  O   UNL     1      21.275 -27.911  36.449  1.00  0.00    -0.387 OA
ATOM     40  H   UNL     1      21.942 -27.229  36.645  1.00  0.00     0.211 HD
ENDBRANCH   4  39
TORSDOF 12
ENDMDL
