MODEL 1
REMARK VINA RESULT:    -8.941      0.000      0.000
REMARK INTER + INTRA:         -13.167
REMARK INTER:                 -12.861
REMARK INTRA:                  -0.306
REMARK UNBOUND:                -0.306
REMARK SMILES O=c1c(O)c(-c2ccc(O)cc2)oc2cc(O[C@@H]3O[C@H](CO)[C@@H](O)[C@H](O)[C@H]3O)cc(O)c12
REMARK SMILES IDX 17 1 16 2 1 3 2 4 3 5 32 6 5 7 30 8 14 9 13 10 29 11 15 12
REMARK SMILES IDX 4 13 6 15 7 16 12 17 8 18 11 19 9 20 10 21 31 23 18 25 19 26
REMARK SMILES IDX 27 27 20 28 25 29 23 30 28 31 21 33 22 34 26 36 24 38
REMARK H PARENT 4 14 10 22 31 24 28 32 22 35 26 37 24 39
ROOT
ATOM      1  O   UNL     1      20.908 -27.892  41.876  1.00  0.00    -0.462 OA
ENDROOT
BRANCH   1   2
ATOM      2  C   UNL     1      20.746 -27.948  40.520  1.00  0.00     0.130 A 
ATOM      3  O   UNL     1      20.190 -26.746  35.566  1.00  0.00    -0.285 OA
ATOM      4  C   UNL     1      20.230 -27.752  36.267  1.00  0.00     0.238 A 
ATOM      5  C   UNL     1      20.093 -29.068  35.591  1.00  0.00     0.208 A 
ATOM      6  C   UNL     1      20.405 -27.769  37.733  1.00  0.00     0.111 A 
ATOM      7  C   UNL     1      20.145 -30.192  36.326  1.00  0.00     0.180 A 
ATOM      8  C   UNL     1      20.525 -26.610  38.506  1.00  0.00     0.134 A 
ATOM      9  C   UNL     1      20.450 -29.010  38.367  1.00  0.00     0.146 A 
ATOM     10  O   UNL     1      20.335 -30.205  37.699  1.00  0.00    -0.452 OA
ATOM     11  C   UNL     1      20.692 -26.702  39.891  1.00  0.00     0.093 A 
ATOM     12  C   UNL     1      20.618 -29.103  39.753  1.00  0.00     0.094 A 
BRANCH   5  13
ATOM     13  O   UNL     1      19.936 -29.042  34.216  1.00  0.00    -0.502 OA
ATOM     14  H   UNL     1      19.819 -29.984  33.966  1.00  0.00     0.293 HD
ENDBRANCH   5  13
BRANCH   7  15
ATOM     15  C   UNL     1      20.029 -31.547  35.747  1.00  0.00     0.021 A 
ATOM     16  C   UNL     1      20.442 -31.828  34.436  1.00  0.00     0.016 A 
ATOM     17  C   UNL     1      19.455 -32.583  36.504  1.00  0.00     0.016 A 
ATOM     18  C   UNL     1      20.296 -33.111  33.901  1.00  0.00     0.047 A 
ATOM     19  C   UNL     1      19.309 -33.867  35.971  1.00  0.00     0.047 A 
ATOM     20  C   UNL     1      19.733 -34.119  34.671  1.00  0.00     0.115 A 
BRANCH  20  21
ATOM     21  O   UNL     1      19.611 -35.355  34.110  1.00  0.00    -0.508 OA
ATOM     22  H   UNL     1      18.702 -35.458  33.783  1.00  0.00     0.293 HD
ENDBRANCH  20  21
ENDBRANCH   7  15
BRANCH   8  23
ATOM     23  O   UNL     1      20.481 -25.373  37.928  1.00  0.00    -0.507 OA
ATOM     24  H   UNL     1      19.650 -25.259  37.440  1.00  0.00     0.293 HD
ENDBRANCH   8  23
ENDBRANCH   1   2
BRANCH   1  25
ATOM     25  C   UNL     1      22.007 -27.122  42.393  1.00  0.00     0.339 C 
ATOM     26  O   UNL     1      23.118 -27.993  42.633  1.00  0.00    -0.332 OA
ATOM     27  C   UNL     1      21.525 -26.465  43.701  1.00  0.00     0.214 C 
ATOM     28  C   UNL     1      24.112 -27.531  43.566  1.00  0.00     0.179 C 
ATOM     29  C   UNL     1      22.631 -25.590  44.308  1.00  0.00     0.180 C 
ATOM     30  C   UNL     1      24.040 -26.035  43.897  1.00  0.00     0.177 C 
BRANCH  27  31
ATOM     31  O   UNL     1      20.361 -25.643  43.503  1.00  0.00    -0.384 OA
ATOM     32  H   UNL     1      19.713 -25.927  44.173  1.00  0.00     0.211 HD
ENDBRANCH  27  31
BRANCH  28  33
ATOM     33  C   UNL     1      24.024 -28.415  44.818  1.00  0.00     0.191 C 
BRANCH  33  34
ATOM     34  O   UNL     1      25.283 -29.047  45.049  1.00  0.00    -0.394 OA
ATOM     35  H   UNL     1      25.486 -28.904  45.995  1.00  0.00     0.210 HD
ENDBRANCH  33  34
ENDBRANCH  28  33
BRANCH  29  36
ATOM     36  O   UNL     1      22.489 -25.612  45.735  1.00  0.00    -0.387 OA
ATOM     37  H   UNL     1      22.015 -24.803  46.002  1.00  0.00     0.211 HD
ENDBRANCH  29  36
BRANCH  30  38
ATOM     38  O   UNL     1      24.427 -25.304  42.722  1.00  0.00    -0.387 OA
ATOM     39  H   UNL     1      23.870 -24.508  42.659  1.00  0.00     0.211 HD
ENDBRANCH  30  38
ENDBRANCH   1  25
TORSDOF 11
ENDMDL
MODEL 2
REMARK VINA RESULT:    -8.810      2.510      9.033
REMARK INTER + INTRA:         -12.979
REMARK INTER:                 -13.074
REMARK INTRA:                   0.095
REMARK UNBOUND:                -0.306
REMARK SMILES O=c1c(O)c(-c2ccc(O)cc2)oc2cc(O[C@@H]3O[C@H](CO)[C@@H](O)[C@H](O)[C@H]3O)cc(O)c12
REMARK SMILES IDX 17 1 16 2 1 3 2 4 3 5 32 6 5 7 30 8 14 9 13 10 29 11 15 12
REMARK SMILES IDX 4 13 6 15 7 16 12 17 8 18 11 19 9 20 10 21 31 23 18 25 19 26
REMARK SMILES IDX 27 27 20 28 25 29 23 30 28 31 21 33 22 34 26 36 24 38
REMARK H PARENT 4 14 10 22 31 24 28 32 22 35 26 37 24 39
ROOT
ATOM      1  O   UNL     1      22.889 -30.440  39.516  1.00  0.00    -0.462 OA
ENDROOT
BRANCH   1   2
ATOM      2  C   UNL     1      22.980 -29.639  40.620  1.00  0.00     0.130 A 
ATOM      3  O   UNL     1      24.226 -27.649  45.178  1.00  0.00    -0.285 OA
ATOM      4  C   UNL     1      23.493 -27.383  44.231  1.00  0.00     0.238 A 
ATOM      5  C   UNL     1      22.685 -26.140  44.313  1.00  0.00     0.208 A 
ATOM      6  C   UNL     1      23.346 -28.196  43.008  1.00  0.00     0.111 A 
ATOM      7  C   UNL     1      21.881 -25.811  43.288  1.00  0.00     0.180 A 
ATOM      8  C   UNL     1      24.026 -29.400  42.799  1.00  0.00     0.134 A 
ATOM      9  C   UNL     1      22.482 -27.729  42.018  1.00  0.00     0.146 A 
ATOM     10  O   UNL     1      21.764 -26.563  42.130  1.00  0.00    -0.452 OA
ATOM     11  C   UNL     1      23.840 -30.117  41.613  1.00  0.00     0.093 A 
ATOM     12  C   UNL     1      22.295 -28.445  40.831  1.00  0.00     0.094 A 
BRANCH   5  13
ATOM     13  O   UNL     1      22.835 -25.381  45.462  1.00  0.00    -0.502 OA
ATOM     14  H   UNL     1      21.998 -24.872  45.529  1.00  0.00     0.293 HD
ENDBRANCH   5  13
BRANCH   7  15
ATOM     15  C   UNL     1      21.045 -24.591  43.270  1.00  0.00     0.021 A 
ATOM     16  C   UNL     1      19.710 -24.605  43.701  1.00  0.00     0.016 A 
ATOM     17  C   UNL     1      21.576 -23.389  42.771  1.00  0.00     0.016 A 
ATOM     18  C   UNL     1      18.931 -23.446  43.648  1.00  0.00     0.047 A 
ATOM     19  C   UNL     1      20.798 -22.228  42.718  1.00  0.00     0.047 A 
ATOM     20  C   UNL     1      19.481 -22.268  43.159  1.00  0.00     0.115 A 
BRANCH  20  21
ATOM     21  O   UNL     1      18.686 -21.161  43.126  1.00  0.00    -0.508 OA
ATOM     22  H   UNL     1      18.630 -20.847  42.208  1.00  0.00     0.293 HD
ENDBRANCH  20  21
ENDBRANCH   7  15
BRANCH   8  23
ATOM     23  O   UNL     1      24.878 -29.898  43.743  1.00  0.00    -0.507 OA
ATOM     24  H   UNL     1      24.971 -29.271  44.476  1.00  0.00     0.293 HD
ENDBRANCH   8  23
ENDBRANCH   1   2
BRANCH   1  25
ATOM     25  C   UNL     1      21.858 -30.150  38.556  1.00  0.00     0.339 C 
ATOM     26  O   UNL     1      22.025 -28.811  38.078  1.00  0.00    -0.332 OA
ATOM     27  C   UNL     1      20.506 -30.316  39.278  1.00  0.00     0.214 C 
ATOM     28  C   UNL     1      20.868 -28.180  37.501  1.00  0.00     0.179 C 
ATOM     29  C   UNL     1      19.341 -30.057  38.312  1.00  0.00     0.180 C 
ATOM     30  C   UNL     1      19.722 -29.137  37.146  1.00  0.00     0.177 C 
BRANCH  27  31
ATOM     31  O   UNL     1      20.343 -31.632  39.835  1.00  0.00    -0.384 OA
ATOM     32  H   UNL     1      19.476 -31.950  39.524  1.00  0.00     0.211 HD
ENDBRANCH  27  31
BRANCH  28  33
ATOM     33  C   UNL     1      20.424 -27.059  38.452  1.00  0.00     0.191 C 
BRANCH  33  34
ATOM     34  O   UNL     1      20.786 -25.792  37.902  1.00  0.00    -0.394 OA
ATOM     35  H   UNL     1      20.150 -25.147  38.271  1.00  0.00     0.210 HD
ENDBRANCH  33  34
ENDBRANCH  28  33
BRANCH  29  36
ATOM     36  O   UNL     1      18.251 -29.501  39.061  1.00  0.00    -0.387 OA
ATOM     37  H   UNL     1      18.105 -30.066  39.842  1.00  0.00     0.211 HD
ENDBRANCH  29  36
BRANCH  30  38
ATOM     38  O   UNL     1      20.152 -29.950  36.042  1.00  0.00    -0.387 OA
ATOM     39  H   UNL     1      21.002 -29.601  35.718  1.00  0.00     0.211 HD
ENDBRANCH  30  38
ENDBRANCH   1  25
TORSDOF 11
ENDMDL
MODEL 3
REMARK VINA RESULT:    -8.762      3.015      5.825
REMARK INTER + INTRA:         -12.909
REMARK INTER:                 -12.082
REMARK INTRA:                  -0.827
REMARK UNBOUND:                -0.306
REMARK SMILES O=c1c(O)c(-c2ccc(O)cc2)oc2cc(O[C@@H]3O[C@H](CO)[C@@H](O)[C@H](O)[C@H]3O)cc(O)c12
REMARK SMILES IDX 17 1 16 2 1 3 2 4 3 5 32 6 5 7 30 8 14 9 13 10 29 11 15 12
REMARK SMILES IDX 4 13 6 15 7 16 12 17 8 18 11 19 9 20 10 21 31 23 18 25 19 26
REMARK SMILES IDX 27 27 20 28 25 29 23 30 28 31 21 33 22 34 26 36 24 38
REMARK H PARENT 4 14 10 22 31 24 28 32 22 35 26 37 24 39
ROOT
ATOM      1  O   UNL     1      20.539 -24.180  44.016  1.00  0.00    -0.462 OA
ENDROOT
BRANCH   1   2
ATOM      2  C   UNL     1      21.209 -25.293  43.591  1.00  0.00     0.130 A 
ATOM      3  O   UNL     1      24.554 -29.149  43.106  1.00  0.00    -0.285 OA
ATOM      4  C   UNL     1      23.561 -28.719  42.529  1.00  0.00     0.238 A 
ATOM      5  C   UNL     1      23.091 -29.453  41.326  1.00  0.00     0.208 A 
ATOM      6  C   UNL     1      22.785 -27.528  42.931  1.00  0.00     0.111 A 
ATOM      7  C   UNL     1      21.998 -29.018  40.677  1.00  0.00     0.180 A 
ATOM      8  C   UNL     1      23.120 -26.728  44.027  1.00  0.00     0.134 A 
ATOM      9  C   UNL     1      21.665 -27.197  42.170  1.00  0.00     0.146 A 
ATOM     10  O   UNL     1      21.257 -27.915  41.072  1.00  0.00    -0.452 OA
ATOM     11  C   UNL     1      22.337 -25.616  44.351  1.00  0.00     0.093 A 
ATOM     12  C   UNL     1      20.880 -26.084  42.493  1.00  0.00     0.094 A 
BRANCH   5  13
ATOM     13  O   UNL     1      23.822 -30.571  40.961  1.00  0.00    -0.502 OA
ATOM     14  H   UNL     1      24.204 -30.338  40.088  1.00  0.00     0.293 HD
ENDBRANCH   5  13
BRANCH   7  15
ATOM     15  C   UNL     1      21.446 -29.683  39.478  1.00  0.00     0.021 A 
ATOM     16  C   UNL     1      21.704 -29.206  38.184  1.00  0.00     0.016 A 
ATOM     17  C   UNL     1      20.605 -30.800  39.624  1.00  0.00     0.016 A 
ATOM     18  C   UNL     1      21.149 -29.836  37.067  1.00  0.00     0.047 A 
ATOM     19  C   UNL     1      20.049 -31.431  38.508  1.00  0.00     0.047 A 
ATOM     20  C   UNL     1      20.328 -30.942  37.237  1.00  0.00     0.115 A 
BRANCH  20  21
ATOM     21  O   UNL     1      19.807 -31.526  36.120  1.00  0.00    -0.508 OA
ATOM     22  H   UNL     1      19.556 -30.827  35.494  1.00  0.00     0.293 HD
ENDBRANCH  20  21
ENDBRANCH   7  15
BRANCH   8  23
ATOM     23  O   UNL     1      24.211 -27.012  44.798  1.00  0.00    -0.507 OA
ATOM     24  H   UNL     1      24.389 -27.965  44.788  1.00  0.00     0.293 HD
ENDBRANCH   8  23
ENDBRANCH   1   2
BRANCH   1  25
ATOM     25  C   UNL     1      21.056 -23.477  45.158  1.00  0.00     0.339 C 
ATOM     26  O   UNL     1      20.211 -23.730  46.287  1.00  0.00    -0.332 OA
ATOM     27  C   UNL     1      21.068 -21.978  44.800  1.00  0.00     0.214 C 
ATOM     28  C   UNL     1      20.267 -22.776  47.363  1.00  0.00     0.179 C 
ATOM     29  C   UNL     1      21.642 -21.148  45.958  1.00  0.00     0.180 C 
ATOM     30  C   UNL     1      21.472 -21.828  47.323  1.00  0.00     0.177 C 
BRANCH  27  31
ATOM     31  O   UNL     1      21.848 -21.704  43.624  1.00  0.00    -0.384 OA
ATOM     32  H   UNL     1      21.642 -20.786  43.371  1.00  0.00     0.211 HD
ENDBRANCH  27  31
BRANCH  28  33
ATOM     33  C   UNL     1      18.928 -22.024  47.392  1.00  0.00     0.191 C 
BRANCH  33  34
ATOM     34  O   UNL     1      17.885 -22.885  46.937  1.00  0.00    -0.394 OA
ATOM     35  H   UNL     1      17.346 -22.351  46.320  1.00  0.00     0.210 HD
ENDBRANCH  33  34
ENDBRANCH  28  33
BRANCH  29  36
ATOM     36  O   UNL     1      21.004 -19.863  45.950  1.00  0.00    -0.387 OA
ATOM     37  H   UNL     1      21.591 -19.234  46.406  1.00  0.00     0.211 HD
ENDBRANCH  29  36
BRANCH  30  38
ATOM     38  O   UNL     1      22.652 -22.602  47.599  1.00  0.00    -0.387 OA
ATOM     39  H   UNL     1      22.375 -23.499  47.856  1.00  0.00     0.211 HD
ENDBRANCH  30  38
ENDBRANCH   1  25
TORSDOF 11
ENDMDL
MODEL 4
REMARK VINA RESULT:    -8.642      2.398      9.547
REMARK INTER + INTRA:         -12.736
REMARK INTER:                 -11.937
REMARK INTRA:                  -0.800
REMARK UNBOUND:                -0.306
REMARK SMILES O=c1c(O)c(-c2ccc(O)cc2)oc2cc(O[C@@H]3O[C@H](CO)[C@@H](O)[C@H](O)[C@H]3O)cc(O)c12
REMARK SMILES IDX 17 1 16 2 1 3 2 4 3 5 32 6 5 7 30 8 14 9 13 10 29 11 15 12
REMARK SMILES IDX 4 13 6 15 7 16 12 17 8 18 11 19 9 20 10 21 31 23 18 25 19 26
REMARK SMILES IDX 27 27 20 28 25 29 23 30 28 31 21 33 22 34 26 36 24 38
REMARK H PARENT 4 14 10 22 31 24 28 32 22 35 26 37 24 39
ROOT
ATOM      1  O   UNL     1      19.768 -30.995  37.648  1.00  0.00    -0.462 OA
ENDROOT
BRANCH   1   2
ATOM      2  C   UNL     1      20.391 -30.199  38.569  1.00  0.00     0.130 A 
ATOM      3  O   UNL     1      23.653 -28.291  42.034  1.00  0.00    -0.285 OA
ATOM      4  C   UNL     1      22.596 -27.975  41.498  1.00  0.00     0.238 A 
ATOM      5  C   UNL     1      21.991 -26.674  41.883  1.00  0.00     0.208 A 
ATOM      6  C   UNL     1      21.870 -28.779  40.495  1.00  0.00     0.111 A 
ATOM      7  C   UNL     1      20.840 -26.289  41.306  1.00  0.00     0.180 A 
ATOM      8  C   UNL     1      22.306 -30.031  40.053  1.00  0.00     0.134 A 
ATOM      9  C   UNL     1      20.690 -28.252  39.972  1.00  0.00     0.146 A 
ATOM     10  O   UNL     1      20.174 -27.035  40.346  1.00  0.00    -0.452 OA
ATOM     11  C   UNL     1      21.568 -30.736  39.097  1.00  0.00     0.093 A 
ATOM     12  C   UNL     1      19.950 -28.956  39.016  1.00  0.00     0.094 A 
BRANCH   5  13
ATOM     13  O   UNL     1      22.683 -25.924  42.819  1.00  0.00    -0.502 OA
ATOM     14  H   UNL     1      22.348 -25.010  42.695  1.00  0.00     0.293 HD
ENDBRANCH   5  13
BRANCH   7  15
ATOM     15  C   UNL     1      20.164 -25.011  41.614  1.00  0.00     0.021 A 
ATOM     16  C   UNL     1      19.799 -24.665  42.924  1.00  0.00     0.016 A 
ATOM     17  C   UNL     1      19.835 -24.127  40.572  1.00  0.00     0.016 A 
ATOM     18  C   UNL     1      19.136 -23.463  43.187  1.00  0.00     0.047 A 
ATOM     19  C   UNL     1      19.172 -22.924  40.833  1.00  0.00     0.047 A 
ATOM     20  C   UNL     1      18.829 -22.603  42.141  1.00  0.00     0.115 A 
BRANCH  20  21
ATOM     21  O   UNL     1      18.182 -21.441  42.442  1.00  0.00    -0.508 OA
ATOM     22  H   UNL     1      18.461 -21.152  43.327  1.00  0.00     0.293 HD
ENDBRANCH  20  21
ENDBRANCH   7  15
BRANCH   8  23
ATOM     23  O   UNL     1      23.454 -30.588  40.541  1.00  0.00    -0.507 OA
ATOM     24  H   UNL     1      23.798 -30.058  41.276  1.00  0.00     0.293 HD
ENDBRANCH   8  23
ENDBRANCH   1   2
BRANCH   1  25
ATOM     25  C   UNL     1      20.369 -31.119  36.347  1.00  0.00     0.339 C 
ATOM     26  O   UNL     1      20.185 -29.895  35.627  1.00  0.00    -0.332 OA
ATOM     27  C   UNL     1      19.669 -32.292  35.635  1.00  0.00     0.214 C 
ATOM     28  C   UNL     1      20.276 -29.968  34.192  1.00  0.00     0.179 C 
ATOM     29  C   UNL     1      20.276 -32.520  34.242  1.00  0.00     0.180 C 
ATOM     30  C   UNL     1      20.913 -31.256  33.652  1.00  0.00     0.177 C 
BRANCH  27  31
ATOM     31  O   UNL     1      19.774 -33.521  36.375  1.00  0.00    -0.384 OA
ATOM     32  H   UNL     1      19.804 -33.268  37.315  1.00  0.00     0.211 HD
ENDBRANCH  27  31
BRANCH  28  33
ATOM     33  C   UNL     1      18.872 -29.722  33.621  1.00  0.00     0.191 C 
BRANCH  33  34
ATOM     34  O   UNL     1      18.813 -30.197  32.275  1.00  0.00    -0.394 OA
ATOM     35  H   UNL     1      18.724 -31.169  32.338  1.00  0.00     0.210 HD
ENDBRANCH  33  34
ENDBRANCH  28  33
BRANCH  29  36
ATOM     36  O   UNL     1      19.244 -33.018  33.379  1.00  0.00    -0.387 OA
ATOM     37  H   UNL     1      18.522 -33.357  33.938  1.00  0.00     0.211 HD
ENDBRANCH  29  36
BRANCH  30  38
ATOM     38  O   UNL     1      22.307 -31.238  34.002  1.00  0.00    -0.387 OA
ATOM     39  H   UNL     1      22.557 -32.128  34.308  1.00  0.00     0.211 HD
ENDBRANCH  30  38
ENDBRANCH   1  25
TORSDOF 11
ENDMDL
MODEL 5
REMARK VINA RESULT:    -8.482      2.249      9.580
REMARK INTER + INTRA:         -12.506
REMARK INTER:                 -11.926
REMARK INTRA:                  -0.580
REMARK UNBOUND:                -0.306
REMARK SMILES O=c1c(O)c(-c2ccc(O)cc2)oc2cc(O[C@@H]3O[C@H](CO)[C@@H](O)[C@H](O)[C@H]3O)cc(O)c12
REMARK SMILES IDX 17 1 16 2 1 3 2 4 3 5 32 6 5 7 30 8 14 9 13 10 29 11 15 12
REMARK SMILES IDX 4 13 6 15 7 16 12 17 8 18 11 19 9 20 10 21 31 23 18 25 19 26
REMARK SMILES IDX 27 27 20 28 25 29 23 30 28 31 21 33 22 34 26 36 24 38
REMARK H PARENT 4 14 10 22 31 24 28 32 22 35 26 37 24 39
ROOT
ATOM      1  O   UNL     1      20.555 -29.734  38.650  1.00  0.00    -0.462 OA
ENDROOT
BRANCH   1   2
ATOM      2  C   UNL     1      21.185 -29.122  39.697  1.00  0.00     0.130 A 
ATOM      3  O   UNL     1      24.418 -27.944  43.499  1.00  0.00    -0.285 OA
ATOM      4  C   UNL     1      23.398 -27.492  42.989  1.00  0.00     0.238 A 
ATOM      5  C   UNL     1      22.848 -26.232  43.550  1.00  0.00     0.208 A 
ATOM      6  C   UNL     1      22.667 -28.094  41.856  1.00  0.00     0.111 A 
ATOM      7  C   UNL     1      21.740 -25.700  43.008  1.00  0.00     0.180 A 
ATOM      8  C   UNL     1      23.053 -29.288  41.241  1.00  0.00     0.134 A 
ATOM      9  C   UNL     1      21.535 -27.428  41.387  1.00  0.00     0.146 A 
ATOM     10  O   UNL     1      21.070 -26.254  41.928  1.00  0.00    -0.452 OA
ATOM     11  C   UNL     1      22.313 -29.799  40.169  1.00  0.00     0.093 A 
ATOM     12  C   UNL     1      20.794 -27.938  40.315  1.00  0.00     0.094 A 
BRANCH   5  13
ATOM     13  O   UNL     1      23.545 -25.672  44.608  1.00  0.00    -0.502 OA
ATOM     14  H   UNL     1      23.691 -26.420  45.227  1.00  0.00     0.293 HD
ENDBRANCH   5  13
BRANCH   7  15
ATOM     15  C   UNL     1      21.121 -24.445  43.488  1.00  0.00     0.021 A 
ATOM     16  C   UNL     1      21.403 -23.208  42.889  1.00  0.00     0.016 A 
ATOM     17  C   UNL     1      20.260 -24.472  44.598  1.00  0.00     0.016 A 
ATOM     18  C   UNL     1      20.827 -22.032  43.379  1.00  0.00     0.047 A 
ATOM     19  C   UNL     1      19.683 -23.297  45.088  1.00  0.00     0.047 A 
ATOM     20  C   UNL     1      19.973 -22.086  44.471  1.00  0.00     0.115 A 
BRANCH  20  21
ATOM     21  O   UNL     1      19.433 -20.915  44.916  1.00  0.00    -0.508 OA
ATOM     22  H   UNL     1      20.031 -20.187  44.675  1.00  0.00     0.293 HD
ENDBRANCH  20  21
ENDBRANCH   7  15
BRANCH   8  23
ATOM     23  O   UNL     1      24.151 -29.977  41.669  1.00  0.00    -0.507 OA
ATOM     24  H   UNL     1      24.000 -30.331  42.559  1.00  0.00     0.293 HD
ENDBRANCH   8  23
ENDBRANCH   1   2
BRANCH   1  25
ATOM     25  C   UNL     1      20.624 -29.103  37.359  1.00  0.00     0.339 C 
ATOM     26  O   UNL     1      19.879 -27.880  37.394  1.00  0.00    -0.332 OA
ATOM     27  C   UNL     1      20.022 -30.090  36.339  1.00  0.00     0.214 C 
ATOM     28  C   UNL     1      19.432 -27.359  36.130  1.00  0.00     0.179 C 
ATOM     29  C   UNL     1      20.087 -29.508  34.919  1.00  0.00     0.180 C 
ATOM     30  C   UNL     1      20.113 -27.975  34.901  1.00  0.00     0.177 C 
BRANCH  27  31
ATOM     31  O   UNL     1      20.704 -31.356  36.336  1.00  0.00    -0.384 OA
ATOM     32  H   UNL     1      20.072 -32.003  36.698  1.00  0.00     0.211 HD
ENDBRANCH  27  31
BRANCH  28  33
ATOM     33  C   UNL     1      17.902 -27.493  36.083  1.00  0.00     0.191 C 
BRANCH  33  34
ATOM     34  O   UNL     1      17.394 -27.648  37.408  1.00  0.00    -0.394 OA
ATOM     35  H   UNL     1      16.423 -27.722  37.316  1.00  0.00     0.210 HD
ENDBRANCH  33  34
ENDBRANCH  28  33
BRANCH  29  36
ATOM     36  O   UNL     1      18.963 -30.005  34.179  1.00  0.00    -0.387 OA
ATOM     37  H   UNL     1      19.294 -30.650  33.528  1.00  0.00     0.211 HD
ENDBRANCH  29  36
BRANCH  30  38
ATOM     38  O   UNL     1      21.483 -27.539  34.892  1.00  0.00    -0.387 OA
ATOM     39  H   UNL     1      21.529 -26.665  35.317  1.00  0.00     0.211 HD
ENDBRANCH  30  38
ENDBRANCH   1  25
TORSDOF 11
ENDMDL
MODEL 6
REMARK VINA RESULT:    -8.271      3.519      7.722
REMARK INTER + INTRA:         -12.203
REMARK INTER:                 -11.928
REMARK INTRA:                  -0.275
REMARK UNBOUND:                -0.306
REMARK SMILES O=c1c(O)c(-c2ccc(O)cc2)oc2cc(O[C@@H]3O[C@H](CO)[C@@H](O)[C@H](O)[C@H]3O)cc(O)c12
REMARK SMILES IDX 17 1 16 2 1 3 2 4 3 5 32 6 5 7 30 8 14 9 13 10 29 11 15 12
REMARK SMILES IDX 4 13 6 15 7 16 12 17 8 18 11 19 9 20 10 21 31 23 18 25 19 26
REMARK SMILES IDX 27 27 20 28 25 29 23 30 28 31 21 33 22 34 26 36 24 38
REMARK H PARENT 4 14 10 22 31 24 28 32 22 35 26 37 24 39
ROOT
ATOM      1  O   UNL     1      18.598 -24.503  37.758  1.00  0.00    -0.462 OA
ENDROOT
BRANCH   1   2
ATOM      2  C   UNL     1      19.350 -25.636  37.899  1.00  0.00     0.130 A 
ATOM      3  O   UNL     1      21.642 -30.159  37.139  1.00  0.00    -0.285 OA
ATOM      4  C   UNL     1      21.574 -29.301  38.013  1.00  0.00     0.238 A 
ATOM      5  C   UNL     1      22.346 -29.526  39.261  1.00  0.00     0.208 A 
ATOM      6  C   UNL     1      20.788 -28.054  37.929  1.00  0.00     0.111 A 
ATOM      7  C   UNL     1      22.306 -28.601  40.235  1.00  0.00     0.180 A 
ATOM      8  C   UNL     1      19.997 -27.717  36.827  1.00  0.00     0.134 A 
ATOM      9  C   UNL     1      20.846 -27.177  39.012  1.00  0.00     0.146 A 
ATOM     10  O   UNL     1      21.588 -27.419  40.143  1.00  0.00    -0.452 OA
ATOM     11  C   UNL     1      19.281 -26.516  36.816  1.00  0.00     0.093 A 
ATOM     12  C   UNL     1      20.130 -25.975  39.002  1.00  0.00     0.094 A 
BRANCH   5  13
ATOM     13  O   UNL     1      23.085 -30.696  39.327  1.00  0.00    -0.502 OA
ATOM     14  H   UNL     1      23.361 -30.862  38.399  1.00  0.00     0.293 HD
ENDBRANCH   5  13
BRANCH   7  15
ATOM     15  C   UNL     1      23.046 -28.728  41.508  1.00  0.00     0.021 A 
ATOM     16  C   UNL     1      23.037 -27.709  42.472  1.00  0.00     0.016 A 
ATOM     17  C   UNL     1      23.817 -29.877  41.755  1.00  0.00     0.016 A 
ATOM     18  C   UNL     1      23.767 -27.840  43.657  1.00  0.00     0.047 A 
ATOM     19  C   UNL     1      24.548 -30.010  42.940  1.00  0.00     0.047 A 
ATOM     20  C   UNL     1      24.514 -28.988  43.882  1.00  0.00     0.115 A 
BRANCH  20  21
ATOM     21  O   UNL     1      25.211 -29.075  45.051  1.00  0.00    -0.508 OA
ATOM     22  H   UNL     1      24.585 -29.253  45.772  1.00  0.00     0.293 HD
ENDBRANCH  20  21
ENDBRANCH   7  15
BRANCH   8  23
ATOM     23  O   UNL     1      19.907 -28.547  35.747  1.00  0.00    -0.507 OA
ATOM     24  H   UNL     1      19.523 -28.075  34.991  1.00  0.00     0.293 HD
ENDBRANCH   8  23
ENDBRANCH   1   2
BRANCH   1  25
ATOM     25  C   UNL     1      17.968 -23.961  38.932  1.00  0.00     0.339 C 
ATOM     26  O   UNL     1      16.614 -24.424  38.994  1.00  0.00    -0.332 OA
ATOM     27  C   UNL     1      18.023 -22.426  38.808  1.00  0.00     0.214 C 
ATOM     28  C   UNL     1      15.700 -23.647  39.789  1.00  0.00     0.179 C 
ATOM     29  C   UNL     1      17.399 -21.760  40.043  1.00  0.00     0.180 C 
ATOM     30  C   UNL     1      16.366 -22.649  40.745  1.00  0.00     0.177 C 
BRANCH  27  31
ATOM     31  O   UNL     1      19.369 -21.938  38.668  1.00  0.00    -0.384 OA
ATOM     32  H   UNL     1      19.370 -21.039  39.044  1.00  0.00     0.211 HD
ENDBRANCH  27  31
BRANCH  28  33
ATOM     33  C   UNL     1      14.707 -22.971  38.832  1.00  0.00     0.191 C 
BRANCH  33  34
ATOM     34  O   UNL     1      14.060 -21.888  39.500  1.00  0.00    -0.394 OA
ATOM     35  H   UNL     1      13.161 -21.836  39.118  1.00  0.00     0.210 HD
ENDBRANCH  33  34
ENDBRANCH  28  33
BRANCH  29  36
ATOM     36  O   UNL     1      16.806 -20.520  39.634  1.00  0.00    -0.387 OA
ATOM     37  H   UNL     1      16.317 -20.680  38.806  1.00  0.00     0.211 HD
ENDBRANCH  29  36
BRANCH  30  38
ATOM     38  O   UNL     1      17.030 -23.401  41.774  1.00  0.00    -0.387 OA
ATOM     39  H   UNL     1      17.579 -22.789  42.295  1.00  0.00     0.211 HD
ENDBRANCH  30  38
ENDBRANCH   1  25
TORSDOF 11
ENDMDL
MODEL 7
REMARK VINA RESULT:    -8.263      2.638      9.458
REMARK INTER + INTRA:         -12.191
REMARK INTER:                 -11.273
REMARK INTRA:                  -0.918
REMARK UNBOUND:                -0.306
REMARK SMILES O=c1c(O)c(-c2ccc(O)cc2)oc2cc(O[C@@H]3O[C@H](CO)[C@@H](O)[C@H](O)[C@H]3O)cc(O)c12
REMARK SMILES IDX 17 1 16 2 1 3 2 4 3 5 32 6 5 7 30 8 14 9 13 10 29 11 15 12
REMARK SMILES IDX 4 13 6 15 7 16 12 17 8 18 11 19 9 20 10 21 31 23 18 25 19 26
REMARK SMILES IDX 27 27 20 28 25 29 23 30 28 31 21 33 22 34 26 36 24 38
REMARK H PARENT 4 14 10 22 31 24 28 32 22 35 26 37 24 39
ROOT
ATOM      1  O   UNL     1      22.543 -30.159  39.798  1.00  0.00    -0.462 OA
ENDROOT
BRANCH   1   2
ATOM      2  C   UNL     1      22.701 -29.296  40.846  1.00  0.00     0.130 A 
ATOM      3  O   UNL     1      24.217 -27.055  45.202  1.00  0.00    -0.285 OA
ATOM      4  C   UNL     1      23.432 -26.840  44.285  1.00  0.00     0.238 A 
ATOM      5  C   UNL     1      22.635 -25.588  44.341  1.00  0.00     0.208 A 
ATOM      6  C   UNL     1      23.211 -27.721  43.121  1.00  0.00     0.111 A 
ATOM      7  C   UNL     1      21.775 -25.312  43.346  1.00  0.00     0.180 A 
ATOM      8  C   UNL     1      23.872 -28.940  42.944  1.00  0.00     0.134 A 
ATOM      9  C   UNL     1      22.293 -27.305  42.157  1.00  0.00     0.146 A 
ATOM     10  O   UNL     1      21.588 -26.129  42.242  1.00  0.00    -0.452 OA
ATOM     11  C   UNL     1      23.615 -29.722  41.814  1.00  0.00     0.093 A 
ATOM     12  C   UNL     1      22.035 -28.087  41.026  1.00  0.00     0.094 A 
BRANCH   5  13
ATOM     13  O   UNL     1      22.854 -24.765  45.433  1.00  0.00    -0.502 OA
ATOM     14  H   UNL     1      23.366 -25.322  46.058  1.00  0.00     0.293 HD
ENDBRANCH   5  13
BRANCH   7  15
ATOM     15  C   UNL     1      20.944 -24.089  43.305  1.00  0.00     0.021 A 
ATOM     16  C   UNL     1      21.500 -22.829  43.039  1.00  0.00     0.016 A 
ATOM     17  C   UNL     1      19.568 -24.171  43.579  1.00  0.00     0.016 A 
ATOM     18  C   UNL     1      20.699 -21.683  43.033  1.00  0.00     0.047 A 
ATOM     19  C   UNL     1      18.766 -23.026  43.572  1.00  0.00     0.047 A 
ATOM     20  C   UNL     1      19.341 -21.790  43.298  1.00  0.00     0.115 A 
BRANCH  20  21
ATOM     21  O   UNL     1      18.597 -20.648  43.282  1.00  0.00    -0.508 OA
ATOM     22  H   UNL     1      17.761 -20.829  42.822  1.00  0.00     0.293 HD
ENDBRANCH  20  21
ENDBRANCH   7  15
BRANCH   8  23
ATOM     23  O   UNL     1      24.776 -29.389  43.864  1.00  0.00    -0.507 OA
ATOM     24  H   UNL     1      24.483 -29.163  44.761  1.00  0.00     0.293 HD
ENDBRANCH   8  23
ENDBRANCH   1   2
BRANCH   1  25
ATOM     25  C   UNL     1      21.210 -30.394  39.313  1.00  0.00     0.339 C 
ATOM     26  O   UNL     1      20.691 -31.582  39.921  1.00  0.00    -0.332 OA
ATOM     27  C   UNL     1      21.305 -30.550  37.783  1.00  0.00     0.214 C 
ATOM     28  C   UNL     1      19.608 -32.239  39.238  1.00  0.00     0.179 C 
ATOM     29  C   UNL     1      19.913 -30.771  37.172  1.00  0.00     0.180 C 
ATOM     30  C   UNL     1      18.918 -31.392  38.160  1.00  0.00     0.177 C 
BRANCH  27  31
ATOM     31  O   UNL     1      21.893 -29.399  37.152  1.00  0.00    -0.384 OA
ATOM     32  H   UNL     1      21.153 -28.802  36.937  1.00  0.00     0.211 HD
ENDBRANCH  27  31
BRANCH  28  33
ATOM     33  C   UNL     1      20.140 -33.570  38.688  1.00  0.00     0.191 C 
BRANCH  33  34
ATOM     34  O   UNL     1      19.340 -33.985  37.581  1.00  0.00    -0.394 OA
ATOM     35  H   UNL     1      19.966 -34.331  36.912  1.00  0.00     0.210 HD
ENDBRANCH  33  34
ENDBRANCH  28  33
BRANCH  29  36
ATOM     36  O   UNL     1      20.058 -31.599  36.011  1.00  0.00    -0.387 OA
ATOM     37  H   UNL     1      19.777 -31.081  35.235  1.00  0.00     0.211 HD
ENDBRANCH  29  36
BRANCH  30  38
ATOM     38  O   UNL     1      18.206 -30.333  38.821  1.00  0.00    -0.387 OA
ATOM     39  H   UNL     1      18.100 -30.573  39.758  1.00  0.00     0.211 HD
ENDBRANCH  30  38
ENDBRANCH   1  25
TORSDOF 11
ENDMDL
MODEL 8
REMARK VINA RESULT:    -8.259      2.028      9.000
REMARK INTER + INTRA:         -12.186
REMARK INTER:                 -11.515
REMARK INTRA:                  -0.670
REMARK UNBOUND:                -0.306
REMARK SMILES O=c1c(O)c(-c2ccc(O)cc2)oc2cc(O[C@@H]3O[C@H](CO)[C@@H](O)[C@H](O)[C@H]3O)cc(O)c12
REMARK SMILES IDX 17 1 16 2 1 3 2 4 3 5 32 6 5 7 30 8 14 9 13 10 29 11 15 12
REMARK SMILES IDX 4 13 6 15 7 16 12 17 8 18 11 19 9 20 10 21 31 23 18 25 19 26
REMARK SMILES IDX 27 27 20 28 25 29 23 30 28 31 21 33 22 34 26 36 24 38
REMARK H PARENT 4 14 10 22 31 24 28 32 22 35 26 37 24 39
ROOT
ATOM      1  O   UNL     1      20.969 -30.956  37.779  1.00  0.00    -0.462 OA
ENDROOT
BRANCH   1   2
ATOM      2  C   UNL     1      20.794 -29.656  38.163  1.00  0.00     0.130 A 
ATOM      3  O   UNL     1      19.740 -24.639  38.250  1.00  0.00    -0.285 OA
ATOM      4  C   UNL     1      20.155 -25.503  39.016  1.00  0.00     0.238 A 
ATOM      5  C   UNL     1      20.473 -25.093  40.408  1.00  0.00     0.208 A 
ATOM      6  C   UNL     1      20.364 -26.923  38.674  1.00  0.00     0.111 A 
ATOM      7  C   UNL     1      20.916 -26.015  41.279  1.00  0.00     0.180 A 
ATOM      8  C   UNL     1      20.129 -27.449  37.400  1.00  0.00     0.134 A 
ATOM      9  C   UNL     1      20.821 -27.773  39.681  1.00  0.00     0.146 A 
ATOM     10  O   UNL     1      21.087 -27.353  40.962  1.00  0.00    -0.452 OA
ATOM     11  C   UNL     1      20.346 -28.807  37.148  1.00  0.00     0.093 A 
ATOM     12  C   UNL     1      21.038 -29.132  39.430  1.00  0.00     0.094 A 
BRANCH   5  13
ATOM     13  O   UNL     1      20.267 -23.759  40.721  1.00  0.00    -0.502 OA
ATOM     14  H   UNL     1      20.076 -23.333  39.857  1.00  0.00     0.293 HD
ENDBRANCH   5  13
BRANCH   7  15
ATOM     15  C   UNL     1      21.250 -25.709  42.687  1.00  0.00     0.021 A 
ATOM     16  C   UNL     1      20.377 -24.985  43.512  1.00  0.00     0.016 A 
ATOM     17  C   UNL     1      22.489 -26.112  43.213  1.00  0.00     0.016 A 
ATOM     18  C   UNL     1      20.726 -24.684  44.831  1.00  0.00     0.047 A 
ATOM     19  C   UNL     1      22.841 -25.812  44.533  1.00  0.00     0.047 A 
ATOM     20  C   UNL     1      21.953 -25.100  45.331  1.00  0.00     0.115 A 
BRANCH  20  21
ATOM     21  O   UNL     1      22.254 -24.786  46.623  1.00  0.00    -0.508 OA
ATOM     22  H   UNL     1      21.827 -25.435  47.207  1.00  0.00     0.293 HD
ENDBRANCH  20  21
ENDBRANCH   7  15
BRANCH   8  23
ATOM     23  O   UNL     1      19.686 -26.653  36.382  1.00  0.00    -0.507 OA
ATOM     24  H   UNL     1      19.661 -25.726  36.667  1.00  0.00     0.293 HD
ENDBRANCH   8  23
ENDBRANCH   1   2
BRANCH   1  25
ATOM     25  C   UNL     1      19.835 -31.839  37.850  1.00  0.00     0.339 C 
ATOM     26  O   UNL     1      20.023 -32.757  38.933  1.00  0.00    -0.332 OA
ATOM     27  C   UNL     1      19.753 -32.581  36.502  1.00  0.00     0.214 C 
ATOM     28  C   UNL     1      19.271 -33.983  38.879  1.00  0.00     0.179 C 
ATOM     29  C   UNL     1      18.543 -33.525  36.476  1.00  0.00     0.180 C 
ATOM     30  C   UNL     1      18.111 -33.984  37.874  1.00  0.00     0.177 C 
BRANCH  27  31
ATOM     31  O   UNL     1      19.641 -31.678  35.388  1.00  0.00    -0.384 OA
ATOM     32  H   UNL     1      18.713 -31.380  35.375  1.00  0.00     0.211 HD
ENDBRANCH  27  31
BRANCH  28  33
ATOM     33  C   UNL     1      20.263 -35.130  38.633  1.00  0.00     0.191 C 
BRANCH  33  34
ATOM     34  O   UNL     1      19.588 -36.220  38.005  1.00  0.00    -0.394 OA
ATOM     35  H   UNL     1      19.359 -35.911  37.105  1.00  0.00     0.210 HD
ENDBRANCH  33  34
ENDBRANCH  28  33
BRANCH  29  36
ATOM     36  O   UNL     1      18.870 -34.652  35.651  1.00  0.00    -0.387 OA
ATOM     37  H   UNL     1      18.140 -35.295  35.717  1.00  0.00     0.211 HD
ENDBRANCH  29  36
BRANCH  30  38
ATOM     38  O   UNL     1      17.104 -33.083  38.362  1.00  0.00    -0.387 OA
ATOM     39  H   UNL     1      16.653 -33.506  39.114  1.00  0.00     0.211 HD
ENDBRANCH  30  38
ENDBRANCH   1  25
TORSDOF 11
ENDMDL
MODEL 9
REMARK VINA RESULT:    -8.113      3.319      6.282
REMARK INTER + INTRA:         -11.975
REMARK INTER:                 -11.389
REMARK INTRA:                  -0.586
REMARK UNBOUND:                -0.306
REMARK SMILES O=c1c(O)c(-c2ccc(O)cc2)oc2cc(O[C@@H]3O[C@H](CO)[C@@H](O)[C@H](O)[C@H]3O)cc(O)c12
REMARK SMILES IDX 17 1 16 2 1 3 2 4 3 5 32 6 5 7 30 8 14 9 13 10 29 11 15 12
REMARK SMILES IDX 4 13 6 15 7 16 12 17 8 18 11 19 9 20 10 21 31 23 18 25 19 26
REMARK SMILES IDX 27 27 20 28 25 29 23 30 28 31 21 33 22 34 26 36 24 38
REMARK H PARENT 4 14 10 22 31 24 28 32 22 35 26 37 24 39
ROOT
ATOM      1  O   UNL     1      19.989 -24.047  44.564  1.00  0.00    -0.462 OA
ENDROOT
BRANCH   1   2
ATOM      2  C   UNL     1      20.775 -25.074  44.120  1.00  0.00     0.130 A 
ATOM      3  O   UNL     1      24.456 -28.609  43.626  1.00  0.00    -0.285 OA
ATOM      4  C   UNL     1      23.465 -28.225  43.014  1.00  0.00     0.238 A 
ATOM      5  C   UNL     1      23.128 -28.919  41.745  1.00  0.00     0.208 A 
ATOM      6  C   UNL     1      22.569 -27.129  43.434  1.00  0.00     0.111 A 
ATOM      7  C   UNL     1      22.042 -28.535  41.054  1.00  0.00     0.180 A 
ATOM      8  C   UNL     1      22.772 -26.373  44.592  1.00  0.00     0.134 A 
ATOM      9  C   UNL     1      21.471 -26.843  42.624  1.00  0.00     0.146 A 
ATOM     10  O   UNL     1      21.189 -27.522  41.464  1.00  0.00    -0.452 OA
ATOM     11  C   UNL     1      21.880 -25.351  44.930  1.00  0.00     0.093 A 
ATOM     12  C   UNL     1      20.577 -25.820  42.961  1.00  0.00     0.094 A 
BRANCH   5  13
ATOM     13  O   UNL     1      23.971 -29.951  41.363  1.00  0.00    -0.502 OA
ATOM     14  H   UNL     1      24.375 -29.637  40.525  1.00  0.00     0.293 HD
ENDBRANCH   5  13
BRANCH   7  15
ATOM     15  C   UNL     1      21.618 -29.168  39.787  1.00  0.00     0.021 A 
ATOM     16  C   UNL     1      20.917 -30.383  39.767  1.00  0.00     0.016 A 
ATOM     17  C   UNL     1      21.956 -28.569  38.561  1.00  0.00     0.016 A 
ATOM     18  C   UNL     1      20.552 -30.977  38.555  1.00  0.00     0.047 A 
ATOM     19  C   UNL     1      21.590 -29.161  37.348  1.00  0.00     0.047 A 
ATOM     20  C   UNL     1      20.889 -30.362  37.358  1.00  0.00     0.115 A 
BRANCH  20  21
ATOM     21  O   UNL     1      20.513 -30.974  36.199  1.00  0.00    -0.508 OA
ATOM     22  H   UNL     1      20.058 -30.324  35.639  1.00  0.00     0.293 HD
ENDBRANCH  20  21
ENDBRANCH   7  15
BRANCH   8  23
ATOM     23  O   UNL     1      23.837 -26.615  45.412  1.00  0.00    -0.507 OA
ATOM     24  H   UNL     1      24.634 -26.189  45.061  1.00  0.00     0.293 HD
ENDBRANCH   8  23
ENDBRANCH   1   2
BRANCH   1  25
ATOM     25  C   UNL     1      20.317 -22.713  44.137  1.00  0.00     0.339 C 
ATOM     26  O   UNL     1      21.378 -22.206  44.954  1.00  0.00    -0.332 OA
ATOM     27  C   UNL     1      19.042 -21.862  44.292  1.00  0.00     0.214 C 
ATOM     28  C   UNL     1      21.522 -20.775  45.013  1.00  0.00     0.179 C 
ATOM     29  C   UNL     1      19.292 -20.421  43.823  1.00  0.00     0.180 C 
ATOM     30  C   UNL     1      20.765 -20.006  43.922  1.00  0.00     0.177 C 
BRANCH  27  31
ATOM     31  O   UNL     1      17.936 -22.392  43.541  1.00  0.00    -0.384 OA
ATOM     32  H   UNL     1      17.404 -21.624  43.265  1.00  0.00     0.211 HD
ENDBRANCH  27  31
BRANCH  28  33
ATOM     33  C   UNL     1      21.132 -20.324  46.428  1.00  0.00     0.191 C 
BRANCH  33  34
ATOM     34  O   UNL     1      22.240 -20.505  47.311  1.00  0.00    -0.394 OA
ATOM     35  H   UNL     1      23.029 -20.208  46.815  1.00  0.00     0.210 HD
ENDBRANCH  33  34
ENDBRANCH  28  33
BRANCH  29  36
ATOM     36  O   UNL     1      18.465 -19.545  44.601  1.00  0.00    -0.387 OA
ATOM     37  H   UNL     1      18.874 -19.449  45.480  1.00  0.00     0.211 HD
ENDBRANCH  29  36
BRANCH  30  38
ATOM     38  O   UNL     1      21.405 -20.280  42.665  1.00  0.00    -0.387 OA
ATOM     39  H   UNL     1      22.110 -19.623  42.530  1.00  0.00     0.211 HD
ENDBRANCH  30  38
ENDBRANCH   1  25
TORSDOF 11
ENDMDL
