MODEL 1
REMARK VINA RESULT:    -9.872      0.000      0.000
REMARK INTER + INTRA:         -11.728
REMARK INTER:                 -11.604
REMARK INTRA:                  -0.124
REMARK UNBOUND:                -0.124
REMARK SMILES O=c1c([O-])c(-c2ccc(O)c(O)c2)oc2cc(O)cc(O)c12
REMARK SMILES IDX 1 1 2 2 3 3 4 4 5 5 14 6 15 7 16 8 17 9 19 10 20 11 22 12
REMARK SMILES IDX 6 13 7 14 13 15 8 16 11 17 9 18 12 19 10 21 21 23 18 25
REMARK H PARENT 12 20 10 22 21 24 18 26
ROOT
ATOM      1  O   UNL     1      19.730 -32.400  35.127  1.00  0.00    -0.290 OA
ATOM      2  C   UNL     1      19.786 -32.025  36.303  1.00  0.00     0.189 A 
ATOM      3  C   UNL     1      20.332 -30.677  36.771  1.00  0.00    -0.014 A 
ATOM      4  O   UNL     1      20.771 -29.924  35.849  1.00  0.00    -0.867 OA
ATOM      5  C   UNL     1      20.271 -30.485  38.119  1.00  0.00     0.130 A 
ATOM      6  O   UNL     1      19.784 -31.383  39.055  1.00  0.00    -0.456 OA
ATOM      7  C   UNL     1      19.308 -32.590  38.641  1.00  0.00     0.146 A 
ATOM      8  C   UNL     1      18.834 -33.453  39.634  1.00  0.00     0.094 A 
ATOM      9  C   UNL     1      18.333 -34.702  39.275  1.00  0.00     0.123 A 
ATOM     10  C   UNL     1      18.299 -35.097  37.944  1.00  0.00     0.093 A 
ATOM     11  C   UNL     1      18.773 -34.228  36.964  1.00  0.00     0.134 A 
ATOM     12  C   UNL     1      19.281 -32.966  37.311  1.00  0.00     0.106 A 
ENDROOT
BRANCH   5  13
ATOM     13  C   UNL     1      20.742 -29.234  38.785  1.00  0.00     0.021 A 
ATOM     14  C   UNL     1      21.452 -29.304  40.002  1.00  0.00     0.016 A 
ATOM     15  C   UNL     1      20.451 -27.967  38.256  1.00  0.00     0.062 A 
ATOM     16  C   UNL     1      21.868 -28.146  40.667  1.00  0.00     0.051 A 
ATOM     17  C   UNL     1      20.883 -26.819  38.912  1.00  0.00     0.158 A 
ATOM     18  C   UNL     1      21.577 -26.910  40.113  1.00  0.00     0.157 A 
BRANCH  17  19
ATOM     19  O   UNL     1      20.650 -25.573  38.392  1.00  0.00    -0.504 OA
ATOM     20  H   UNL     1      20.599 -25.696  37.426  1.00  0.00     0.293 HD
ENDBRANCH  17  19
BRANCH  18  21
ATOM     21  O   UNL     1      21.986 -25.771  40.749  1.00  0.00    -0.504 OA
ATOM     22  H   UNL     1      21.597 -25.058  40.204  1.00  0.00     0.293 HD
ENDBRANCH  18  21
ENDBRANCH   5  13
BRANCH  11  23
ATOM     23  O   UNL     1      18.715 -34.671  35.666  1.00  0.00    -0.507 OA
ATOM     24  H   UNL     1      18.438 -35.620  35.713  1.00  0.00     0.293 HD
ENDBRANCH  11  23
BRANCH   9  25
ATOM     25  O   UNL     1      17.861 -35.571  40.216  1.00  0.00    -0.508 OA
ATOM     26  H   UNL     1      18.530 -36.261  40.355  1.00  0.00     0.293 HD
ENDBRANCH   9  25
TORSDOF 5
ENDMDL
MODEL 2
REMARK VINA RESULT:    -9.552      0.641      1.461
REMARK INTER + INTRA:         -11.352
REMARK INTER:                 -11.149
REMARK INTRA:                  -0.202
REMARK UNBOUND:                -0.124
REMARK SMILES O=c1c([O-])c(-c2ccc(O)c(O)c2)oc2cc(O)cc(O)c12
REMARK SMILES IDX 1 1 2 2 3 3 4 4 5 5 14 6 15 7 16 8 17 9 19 10 20 11 22 12
REMARK SMILES IDX 6 13 7 14 13 15 8 16 11 17 9 18 12 19 10 21 21 23 18 25
REMARK H PARENT 12 20 10 22 21 24 18 26
ROOT
ATOM      1  O   UNL     1      19.731 -32.391  35.223  1.00  0.00    -0.290 OA
ATOM      2  C   UNL     1      19.770 -32.056  36.412  1.00  0.00     0.189 A 
ATOM      3  C   UNL     1      20.300 -30.722  36.934  1.00  0.00    -0.014 A 
ATOM      4  O   UNL     1      20.747 -29.934  36.044  1.00  0.00    -0.867 OA
ATOM      5  C   UNL     1      20.220 -30.577  38.287  1.00  0.00     0.130 A 
ATOM      6  O   UNL     1      19.725 -31.510  39.184  1.00  0.00    -0.456 OA
ATOM      7  C   UNL     1      19.263 -32.704  38.723  1.00  0.00     0.146 A 
ATOM      8  C   UNL     1      18.782 -33.604  39.679  1.00  0.00     0.094 A 
ATOM      9  C   UNL     1      18.293 -34.843  39.270  1.00  0.00     0.123 A 
ATOM     10  C   UNL     1      18.280 -35.192  37.925  1.00  0.00     0.093 A 
ATOM     11  C   UNL     1      18.762 -34.286  36.982  1.00  0.00     0.134 A 
ATOM     12  C   UNL     1      19.257 -33.035  37.380  1.00  0.00     0.106 A 
ENDROOT
BRANCH   5  13
ATOM     13  C   UNL     1      20.674 -29.346  39.002  1.00  0.00     0.021 A 
ATOM     14  C   UNL     1      20.169 -28.084  38.629  1.00  0.00     0.016 A 
ATOM     15  C   UNL     1      21.644 -29.403  40.015  1.00  0.00     0.062 A 
ATOM     16  C   UNL     1      20.610 -26.913  39.254  1.00  0.00     0.051 A 
ATOM     17  C   UNL     1      22.065 -28.238  40.646  1.00  0.00     0.158 A 
ATOM     18  C   UNL     1      21.558 -27.002  40.260  1.00  0.00     0.157 A 
BRANCH  17  19
ATOM     19  O   UNL     1      22.977 -28.272  41.668  1.00  0.00    -0.504 OA
ATOM     20  H   UNL     1      23.665 -28.904  41.386  1.00  0.00     0.293 HD
ENDBRANCH  17  19
BRANCH  18  21
ATOM     21  O   UNL     1      21.990 -25.866  40.885  1.00  0.00    -0.504 OA
ATOM     22  H   UNL     1      21.540 -25.152  40.390  1.00  0.00     0.293 HD
ENDBRANCH  18  21
ENDBRANCH   5  13
BRANCH  11  23
ATOM     23  O   UNL     1      18.724 -34.684  35.670  1.00  0.00    -0.507 OA
ATOM     24  H   UNL     1      17.789 -34.554  35.371  1.00  0.00     0.293 HD
ENDBRANCH  11  23
BRANCH   9  25
ATOM     25  O   UNL     1      17.814 -35.746  40.173  1.00  0.00    -0.508 OA
ATOM     26  H   UNL     1      18.389 -35.727  40.956  1.00  0.00     0.293 HD
ENDBRANCH   9  25
TORSDOF 5
ENDMDL
MODEL 3
REMARK VINA RESULT:    -9.492      1.148      1.272
REMARK INTER + INTRA:         -11.281
REMARK INTER:                 -10.950
REMARK INTRA:                  -0.331
REMARK UNBOUND:                -0.124
REMARK SMILES O=c1c([O-])c(-c2ccc(O)c(O)c2)oc2cc(O)cc(O)c12
REMARK SMILES IDX 1 1 2 2 3 3 4 4 5 5 14 6 15 7 16 8 17 9 19 10 20 11 22 12
REMARK SMILES IDX 6 13 7 14 13 15 8 16 11 17 9 18 12 19 10 21 21 23 18 25
REMARK H PARENT 12 20 10 22 21 24 18 26
ROOT
ATOM      1  O   UNL     1      19.781 -31.712  35.615  1.00  0.00    -0.290 OA
ATOM      2  C   UNL     1      19.905 -31.608  36.840  1.00  0.00     0.189 A 
ATOM      3  C   UNL     1      20.586 -30.446  37.560  1.00  0.00    -0.014 A 
ATOM      4  O   UNL     1      21.066 -29.549  36.802  1.00  0.00    -0.867 OA
ATOM      5  C   UNL     1      20.581 -30.549  38.920  1.00  0.00     0.130 A 
ATOM      6  O   UNL     1      20.040 -31.586  39.662  1.00  0.00    -0.456 OA
ATOM      7  C   UNL     1      19.444 -32.629  39.022  1.00  0.00     0.146 A 
ATOM      8  C   UNL     1      18.921 -33.645  39.827  1.00  0.00     0.094 A 
ATOM      9  C   UNL     1      18.297 -34.739  39.233  1.00  0.00     0.123 A 
ATOM     10  C   UNL     1      18.189 -34.829  37.851  1.00  0.00     0.093 A 
ATOM     11  C   UNL     1      18.713 -33.810  37.059  1.00  0.00     0.134 A 
ATOM     12  C   UNL     1      19.344 -32.702  37.645  1.00  0.00     0.106 A 
ENDROOT
BRANCH   5  13
ATOM     13  C   UNL     1      21.185 -29.517  39.816  1.00  0.00     0.021 A 
ATOM     14  C   UNL     1      22.453 -29.737  40.393  1.00  0.00     0.016 A 
ATOM     15  C   UNL     1      20.496 -28.341  40.149  1.00  0.00     0.062 A 
ATOM     16  C   UNL     1      23.022 -28.806  41.269  1.00  0.00     0.051 A 
ATOM     17  C   UNL     1      21.075 -27.410  41.005  1.00  0.00     0.158 A 
ATOM     18  C   UNL     1      22.324 -27.648  41.567  1.00  0.00     0.157 A 
BRANCH  17  19
ATOM     19  O   UNL     1      20.441 -26.234  41.309  1.00  0.00    -0.504 OA
ATOM     20  H   UNL     1      20.042 -25.926  40.474  1.00  0.00     0.293 HD
ENDBRANCH  17  19
BRANCH  18  21
ATOM     21  O   UNL     1      22.873 -26.727  42.414  1.00  0.00    -0.504 OA
ATOM     22  H   UNL     1      23.663 -26.416  41.928  1.00  0.00     0.293 HD
ENDBRANCH  18  21
ENDBRANCH   5  13
BRANCH  11  23
ATOM     23  O   UNL     1      18.577 -33.951  35.701  1.00  0.00    -0.507 OA
ATOM     24  H   UNL     1      17.619 -33.793  35.504  1.00  0.00     0.293 HD
ENDBRANCH  11  23
BRANCH   9  25
ATOM     25  O   UNL     1      17.774 -35.750  39.986  1.00  0.00    -0.508 OA
ATOM     26  H   UNL     1      18.001 -36.594  39.561  1.00  0.00     0.293 HD
ENDBRANCH   9  25
TORSDOF 5
ENDMDL
MODEL 4
REMARK VINA RESULT:    -8.961      2.477      7.480
REMARK INTER + INTRA:         -10.657
REMARK INTER:                 -10.367
REMARK INTRA:                  -0.289
REMARK UNBOUND:                -0.124
REMARK SMILES O=c1c([O-])c(-c2ccc(O)c(O)c2)oc2cc(O)cc(O)c12
REMARK SMILES IDX 1 1 2 2 3 3 4 4 5 5 14 6 15 7 16 8 17 9 19 10 20 11 22 12
REMARK SMILES IDX 6 13 7 14 13 15 8 16 11 17 9 18 12 19 10 21 21 23 18 25
REMARK H PARENT 12 20 10 22 21 24 18 26
ROOT
ATOM      1  O   UNL     1      21.592 -25.144  41.281  1.00  0.00    -0.290 OA
ATOM      2  C   UNL     1      21.788 -26.357  41.148  1.00  0.00     0.189 A 
ATOM      3  C   UNL     1      21.147 -27.239  40.079  1.00  0.00    -0.014 A 
ATOM      4  O   UNL     1      20.340 -26.643  39.300  1.00  0.00    -0.867 OA
ATOM      5  C   UNL     1      21.534 -28.546  40.123  1.00  0.00     0.130 A 
ATOM      6  O   UNL     1      22.417 -29.109  41.030  1.00  0.00    -0.456 OA
ATOM      7  C   UNL     1      22.981 -28.327  41.991  1.00  0.00     0.146 A 
ATOM      8  C   UNL     1      23.859 -28.956  42.878  1.00  0.00     0.094 A 
ATOM      9  C   UNL     1      24.470 -28.210  43.884  1.00  0.00     0.123 A 
ATOM     10  C   UNL     1      24.214 -26.851  44.013  1.00  0.00     0.093 A 
ATOM     11  C   UNL     1      23.337 -26.235  43.123  1.00  0.00     0.134 A 
ATOM     12  C   UNL     1      22.715 -26.975  42.105  1.00  0.00     0.106 A 
ENDROOT
BRANCH   5  13
ATOM     13  C   UNL     1      21.035 -29.576  39.163  1.00  0.00     0.021 A 
ATOM     14  C   UNL     1      20.272 -30.666  39.630  1.00  0.00     0.016 A 
ATOM     15  C   UNL     1      21.351 -29.520  37.797  1.00  0.00     0.062 A 
ATOM     16  C   UNL     1      19.829 -31.667  38.758  1.00  0.00     0.051 A 
ATOM     17  C   UNL     1      20.891 -30.507  36.932  1.00  0.00     0.158 A 
ATOM     18  C   UNL     1      20.144 -31.576  37.412  1.00  0.00     0.157 A 
BRANCH  17  19
ATOM     19  O   UNL     1      21.148 -30.450  35.587  1.00  0.00    -0.504 OA
ATOM     20  H   UNL     1      21.999 -29.979  35.501  1.00  0.00     0.293 HD
ENDBRANCH  17  19
BRANCH  18  21
ATOM     21  O   UNL     1      19.709 -32.542  36.549  1.00  0.00    -0.504 OA
ATOM     22  H   UNL     1      18.991 -32.982  37.048  1.00  0.00     0.293 HD
ENDBRANCH  18  21
ENDBRANCH   5  13
BRANCH  11  23
ATOM     23  O   UNL     1      23.123 -24.891  43.298  1.00  0.00    -0.507 OA
ATOM     24  H   UNL     1      23.194 -24.727  44.272  1.00  0.00     0.293 HD
ENDBRANCH  11  23
BRANCH   9  25
ATOM     25  O   UNL     1      25.334 -28.789  44.767  1.00  0.00    -0.508 OA
ATOM     26  H   UNL     1      26.097 -28.198  44.878  1.00  0.00     0.293 HD
ENDBRANCH   9  25
TORSDOF 5
ENDMDL
MODEL 5
REMARK VINA RESULT:    -8.648      1.451      3.337
REMARK INTER + INTRA:         -10.289
REMARK INTER:                 -10.159
REMARK INTRA:                  -0.130
REMARK UNBOUND:                -0.124
REMARK SMILES O=c1c([O-])c(-c2ccc(O)c(O)c2)oc2cc(O)cc(O)c12
REMARK SMILES IDX 1 1 2 2 3 3 4 4 5 5 14 6 15 7 16 8 17 9 19 10 20 11 22 12
REMARK SMILES IDX 6 13 7 14 13 15 8 16 11 17 9 18 12 19 10 21 21 23 18 25
REMARK H PARENT 12 20 10 22 21 24 18 26
ROOT
ATOM      1  O   UNL     1      18.773 -33.924  37.914  1.00  0.00    -0.290 OA
ATOM      2  C   UNL     1      19.331 -32.880  37.560  1.00  0.00     0.189 A 
ATOM      3  C   UNL     1      19.693 -31.719  38.483  1.00  0.00    -0.014 A 
ATOM      4  O   UNL     1      19.356 -31.870  39.697  1.00  0.00    -0.867 OA
ATOM      5  C   UNL     1      20.323 -30.682  37.860  1.00  0.00     0.130 A 
ATOM      6  O   UNL     1      20.636 -30.603  36.513  1.00  0.00    -0.456 OA
ATOM      7  C   UNL     1      20.303 -31.632  35.685  1.00  0.00     0.146 A 
ATOM      8  C   UNL     1      20.642 -31.489  34.337  1.00  0.00     0.094 A 
ATOM      9  C   UNL     1      20.330 -32.507  33.439  1.00  0.00     0.123 A 
ATOM     10  C   UNL     1      19.688 -33.661  33.871  1.00  0.00     0.093 A 
ATOM     11  C   UNL     1      19.356 -33.792  35.218  1.00  0.00     0.134 A 
ATOM     12  C   UNL     1      19.665 -32.773  36.133  1.00  0.00     0.106 A 
ENDROOT
BRANCH   5  13
ATOM     13  C   UNL     1      20.771 -29.452  38.579  1.00  0.00     0.021 A 
ATOM     14  C   UNL     1      21.465 -29.561  39.802  1.00  0.00     0.016 A 
ATOM     15  C   UNL     1      20.473 -28.169  38.094  1.00  0.00     0.062 A 
ATOM     16  C   UNL     1      21.858 -28.424  40.516  1.00  0.00     0.051 A 
ATOM     17  C   UNL     1      20.883 -27.043  38.799  1.00  0.00     0.158 A 
ATOM     18  C   UNL     1      21.562 -27.171  40.005  1.00  0.00     0.157 A 
BRANCH  17  19
ATOM     19  O   UNL     1      20.643 -25.780  38.323  1.00  0.00    -0.504 OA
ATOM     20  H   UNL     1      19.826 -25.849  37.794  1.00  0.00     0.293 HD
ENDBRANCH  17  19
BRANCH  18  21
ATOM     21  O   UNL     1      21.948 -26.053  40.689  1.00  0.00    -0.504 OA
ATOM     22  H   UNL     1      21.624 -25.322  40.125  1.00  0.00     0.293 HD
ENDBRANCH  18  21
ENDBRANCH   5  13
BRANCH  11  23
ATOM     23  O   UNL     1      18.724 -34.953  35.587  1.00  0.00    -0.507 OA
ATOM     24  H   UNL     1      18.656 -35.501  34.765  1.00  0.00     0.293 HD
ENDBRANCH  11  23
BRANCH   9  25
ATOM     25  O   UNL     1      20.646 -32.405  32.116  1.00  0.00    -0.508 OA
ATOM     26  H   UNL     1      21.607 -32.517  32.023  1.00  0.00     0.293 HD
ENDBRANCH   9  25
TORSDOF 5
ENDMDL
MODEL 6
REMARK VINA RESULT:    -8.558      2.816      5.611
REMARK INTER + INTRA:         -10.184
REMARK INTER:                 -10.242
REMARK INTRA:                   0.058
REMARK UNBOUND:                -0.124
REMARK SMILES O=c1c([O-])c(-c2ccc(O)c(O)c2)oc2cc(O)cc(O)c12
REMARK SMILES IDX 1 1 2 2 3 3 4 4 5 5 14 6 15 7 16 8 17 9 19 10 20 11 22 12
REMARK SMILES IDX 6 13 7 14 13 15 8 16 11 17 9 18 12 19 10 21 21 23 18 25
REMARK H PARENT 12 20 10 22 21 24 18 26
ROOT
ATOM      1  O   UNL     1      20.445 -25.802  38.550  1.00  0.00    -0.290 OA
ATOM      2  C   UNL     1      20.967 -26.812  39.036  1.00  0.00     0.189 A 
ATOM      3  C   UNL     1      21.771 -26.849  40.334  1.00  0.00    -0.014 A 
ATOM      4  O   UNL     1      21.907 -25.729  40.916  1.00  0.00    -0.867 OA
ATOM      5  C   UNL     1      22.230 -28.087  40.674  1.00  0.00     0.130 A 
ATOM      6  O   UNL     1      22.040 -29.257  39.958  1.00  0.00    -0.456 OA
ATOM      7  C   UNL     1      21.334 -29.225  38.795  1.00  0.00     0.146 A 
ATOM      8  C   UNL     1      21.181 -30.438  38.117  1.00  0.00     0.094 A 
ATOM      9  C   UNL     1      20.468 -30.472  36.922  1.00  0.00     0.123 A 
ATOM     10  C   UNL     1      19.908 -29.314  36.397  1.00  0.00     0.093 A 
ATOM     11  C   UNL     1      20.067 -28.110  37.082  1.00  0.00     0.134 A 
ATOM     12  C   UNL     1      20.783 -28.063  38.288  1.00  0.00     0.106 A 
ENDROOT
BRANCH   5  13
ATOM     13  C   UNL     1      23.030 -28.347  41.909  1.00  0.00     0.021 A 
ATOM     14  C   UNL     1      23.793 -29.528  42.021  1.00  0.00     0.016 A 
ATOM     15  C   UNL     1      23.003 -27.464  43.000  1.00  0.00     0.062 A 
ATOM     16  C   UNL     1      24.516 -29.815  43.184  1.00  0.00     0.051 A 
ATOM     17  C   UNL     1      23.739 -27.746  44.145  1.00  0.00     0.158 A 
ATOM     18  C   UNL     1      24.482 -28.918  44.238  1.00  0.00     0.157 A 
BRANCH  17  19
ATOM     19  O   UNL     1      23.765 -26.878  45.205  1.00  0.00    -0.504 OA
ATOM     20  H   UNL     1      23.100 -27.213  45.836  1.00  0.00     0.293 HD
ENDBRANCH  17  19
BRANCH  18  21
ATOM     21  O   UNL     1      25.191 -29.183  45.375  1.00  0.00    -0.504 OA
ATOM     22  H   UNL     1      25.969 -28.595  45.297  1.00  0.00     0.293 HD
ENDBRANCH  18  21
ENDBRANCH   5  13
BRANCH  11  23
ATOM     23  O   UNL     1      19.492 -26.999  36.517  1.00  0.00    -0.507 OA
ATOM     24  H   UNL     1      19.443 -27.180  35.545  1.00  0.00     0.293 HD
ENDBRANCH  11  23
BRANCH   9  25
ATOM     25  O   UNL     1      20.297 -31.637  36.233  1.00  0.00    -0.508 OA
ATOM     26  H   UNL     1      21.092 -32.182  36.355  1.00  0.00     0.293 HD
ENDBRANCH   9  25
TORSDOF 5
ENDMDL
MODEL 7
REMARK VINA RESULT:    -8.341      4.178      7.408
REMARK INTER + INTRA:          -9.928
REMARK INTER:                  -9.638
REMARK INTRA:                  -0.290
REMARK UNBOUND:                -0.124
REMARK SMILES O=c1c([O-])c(-c2ccc(O)c(O)c2)oc2cc(O)cc(O)c12
REMARK SMILES IDX 1 1 2 2 3 3 4 4 5 5 14 6 15 7 16 8 17 9 19 10 20 11 22 12
REMARK SMILES IDX 6 13 7 14 13 15 8 16 11 17 9 18 12 19 10 21 21 23 18 25
REMARK H PARENT 12 20 10 22 21 24 18 26
ROOT
ATOM      1  O   UNL     1      24.386 -30.215  42.270  1.00  0.00    -0.290 OA
ATOM      2  C   UNL     1      23.574 -29.360  41.901  1.00  0.00     0.189 A 
ATOM      3  C   UNL     1      22.760 -29.420  40.610  1.00  0.00    -0.014 A 
ATOM      4  O   UNL     1      22.982 -30.433  39.878  1.00  0.00    -0.867 OA
ATOM      5  C   UNL     1      21.914 -28.365  40.431  1.00  0.00     0.130 A 
ATOM      6  O   UNL     1      21.754 -27.288  41.287  1.00  0.00    -0.456 OA
ATOM      7  C   UNL     1      22.487 -27.227  42.433  1.00  0.00     0.146 A 
ATOM      8  C   UNL     1      22.282 -26.113  43.252  1.00  0.00     0.094 A 
ATOM      9  C   UNL     1      23.001 -25.993  44.439  1.00  0.00     0.123 A 
ATOM     10  C   UNL     1      23.917 -26.966  44.815  1.00  0.00     0.093 A 
ATOM     11  C   UNL     1      24.112 -28.072  43.990  1.00  0.00     0.134 A 
ATOM     12  C   UNL     1      23.394 -28.206  42.792  1.00  0.00     0.106 A 
ENDROOT
BRANCH   5  13
ATOM     13  C   UNL     1      21.021 -28.231  39.241  1.00  0.00     0.021 A 
ATOM     14  C   UNL     1      19.625 -28.370  39.385  1.00  0.00     0.016 A 
ATOM     15  C   UNL     1      21.541 -28.019  37.954  1.00  0.00     0.062 A 
ATOM     16  C   UNL     1      18.771 -28.291  38.280  1.00  0.00     0.051 A 
ATOM     17  C   UNL     1      20.685 -27.923  36.862  1.00  0.00     0.158 A 
ATOM     18  C   UNL     1      19.312 -28.067  37.024  1.00  0.00     0.157 A 
BRANCH  17  19
ATOM     19  O   UNL     1      21.165 -27.671  35.603  1.00  0.00    -0.504 OA
ATOM     20  H   UNL     1      21.677 -26.844  35.676  1.00  0.00     0.293 HD
ENDBRANCH  17  19
BRANCH  18  21
ATOM     21  O   UNL     1      18.487 -27.979  35.938  1.00  0.00    -0.504 OA
ATOM     22  H   UNL     1      19.111 -27.950  35.185  1.00  0.00     0.293 HD
ENDBRANCH  18  21
ENDBRANCH   5  13
BRANCH  11  23
ATOM     23  O   UNL     1      25.029 -29.002  44.412  1.00  0.00    -0.507 OA
ATOM     24  H   UNL     1      25.715 -29.053  43.700  1.00  0.00     0.293 HD
ENDBRANCH  11  23
BRANCH   9  25
ATOM     25  O   UNL     1      22.827 -24.920  45.265  1.00  0.00    -0.508 OA
ATOM     26  H   UNL     1      23.636 -24.806  45.789  1.00  0.00     0.293 HD
ENDBRANCH   9  25
TORSDOF 5
ENDMDL
MODEL 8
REMARK VINA RESULT:    -8.258      1.819      7.065
REMARK INTER + INTRA:          -9.831
REMARK INTER:                  -9.494
REMARK INTRA:                  -0.337
REMARK UNBOUND:                -0.124
REMARK SMILES O=c1c([O-])c(-c2ccc(O)c(O)c2)oc2cc(O)cc(O)c12
REMARK SMILES IDX 1 1 2 2 3 3 4 4 5 5 14 6 15 7 16 8 17 9 19 10 20 11 22 12
REMARK SMILES IDX 6 13 7 14 13 15 8 16 11 17 9 18 12 19 10 21 21 23 18 25
REMARK H PARENT 12 20 10 22 21 24 18 26
ROOT
ATOM      1  O   UNL     1      22.129 -28.436  40.112  1.00  0.00    -0.290 OA
ATOM      2  C   UNL     1      21.098 -28.966  39.683  1.00  0.00     0.189 A 
ATOM      3  C   UNL     1      20.926 -30.458  39.405  1.00  0.00    -0.014 A 
ATOM      4  O   UNL     1      21.954 -31.169  39.623  1.00  0.00    -0.867 OA
ATOM      5  C   UNL     1      19.687 -30.805  38.954  1.00  0.00     0.130 A 
ATOM      6  O   UNL     1      18.625 -29.944  38.730  1.00  0.00    -0.456 OA
ATOM      7  C   UNL     1      18.779 -28.612  38.966  1.00  0.00     0.146 A 
ATOM      8  C   UNL     1      17.672 -27.797  38.716  1.00  0.00     0.094 A 
ATOM      9  C   UNL     1      17.766 -26.425  38.940  1.00  0.00     0.123 A 
ATOM     10  C   UNL     1      18.946 -25.862  39.407  1.00  0.00     0.093 A 
ATOM     11  C   UNL     1      20.043 -26.685  39.653  1.00  0.00     0.134 A 
ATOM     12  C   UNL     1      19.962 -28.069  39.432  1.00  0.00     0.106 A 
ENDROOT
BRANCH   5  13
ATOM     13  C   UNL     1      19.304 -32.212  38.629  1.00  0.00     0.021 A 
ATOM     14  C   UNL     1      19.408 -32.686  37.305  1.00  0.00     0.016 A 
ATOM     15  C   UNL     1      18.785 -33.075  39.607  1.00  0.00     0.062 A 
ATOM     16  C   UNL     1      19.016 -33.985  36.967  1.00  0.00     0.051 A 
ATOM     17  C   UNL     1      18.414 -34.372  39.269  1.00  0.00     0.158 A 
ATOM     18  C   UNL     1      18.520 -34.818  37.956  1.00  0.00     0.157 A 
BRANCH  17  19
ATOM     19  O   UNL     1      17.947 -35.247  40.214  1.00  0.00    -0.504 OA
ATOM     20  H   UNL     1      17.267 -34.757  40.714  1.00  0.00     0.293 HD
ENDBRANCH  17  19
BRANCH  18  21
ATOM     21  O   UNL     1      18.142 -36.093  37.641  1.00  0.00    -0.504 OA
ATOM     22  H   UNL     1      17.753 -35.997  36.748  1.00  0.00     0.293 HD
ENDBRANCH  18  21
ENDBRANCH   5  13
BRANCH  11  23
ATOM     23  O   UNL     1      21.182 -26.074  40.115  1.00  0.00    -0.507 OA
ATOM     24  H   UNL     1      20.947 -25.122  40.246  1.00  0.00     0.293 HD
ENDBRANCH  11  23
BRANCH   9  25
ATOM     25  O   UNL     1      16.706 -25.597  38.709  1.00  0.00    -0.508 OA
ATOM     26  H   UNL     1      17.048 -24.753  38.372  1.00  0.00     0.293 HD
ENDBRANCH   9  25
TORSDOF 5
ENDMDL
MODEL 9
REMARK VINA RESULT:    -7.918      5.628      7.586
REMARK INTER + INTRA:          -9.431
REMARK INTER:                  -9.096
REMARK INTRA:                  -0.334
REMARK UNBOUND:                -0.124
REMARK SMILES O=c1c([O-])c(-c2ccc(O)c(O)c2)oc2cc(O)cc(O)c12
REMARK SMILES IDX 1 1 2 2 3 3 4 4 5 5 14 6 15 7 16 8 17 9 19 10 20 11 22 12
REMARK SMILES IDX 6 13 7 14 13 15 8 16 11 17 9 18 12 19 10 21 21 23 18 25
REMARK H PARENT 12 20 10 22 21 24 18 26
ROOT
ATOM      1  O   UNL     1      21.757 -28.405  40.182  1.00  0.00    -0.290 OA
ATOM      2  C   UNL     1      21.903 -27.689  41.178  1.00  0.00     0.189 A 
ATOM      3  C   UNL     1      21.137 -26.396  41.452  1.00  0.00    -0.014 A 
ATOM      4  O   UNL     1      20.313 -26.056  40.549  1.00  0.00    -0.867 OA
ATOM      5  C   UNL     1      21.460 -25.792  42.631  1.00  0.00     0.130 A 
ATOM      6  O   UNL     1      22.395 -26.237  43.552  1.00  0.00    -0.456 OA
ATOM      7  C   UNL     1      23.087 -27.384  43.304  1.00  0.00     0.146 A 
ATOM      8  C   UNL     1      24.019 -27.777  44.270  1.00  0.00     0.094 A 
ATOM      9  C   UNL     1      24.758 -28.941  44.075  1.00  0.00     0.123 A 
ATOM     10  C   UNL     1      24.578 -29.714  42.935  1.00  0.00     0.093 A 
ATOM     11  C   UNL     1      23.646 -29.311  41.980  1.00  0.00     0.134 A 
ATOM     12  C   UNL     1      22.895 -28.140  42.163  1.00  0.00     0.106 A 
ENDROOT
BRANCH   5  13
ATOM     13  C   UNL     1      20.824 -24.523  43.097  1.00  0.00     0.021 A 
ATOM     14  C   UNL     1      19.649 -24.565  43.876  1.00  0.00     0.016 A 
ATOM     15  C   UNL     1      21.338 -23.269  42.733  1.00  0.00     0.062 A 
ATOM     16  C   UNL     1      19.010 -23.391  44.288  1.00  0.00     0.051 A 
ATOM     17  C   UNL     1      20.710 -22.105  43.162  1.00  0.00     0.158 A 
ATOM     18  C   UNL     1      19.549 -22.168  43.926  1.00  0.00     0.157 A 
BRANCH  17  19
ATOM     19  O   UNL     1      21.218 -20.869  42.858  1.00  0.00    -0.504 OA
ATOM     20  H   UNL     1      21.877 -20.678  43.552  1.00  0.00     0.293 HD
ENDBRANCH  17  19
BRANCH  18  21
ATOM     21  O   UNL     1      18.940 -21.014  44.330  1.00  0.00    -0.504 OA
ATOM     22  H   UNL     1      18.798 -20.529  43.492  1.00  0.00     0.293 HD
ENDBRANCH  18  21
ENDBRANCH   5  13
BRANCH  11  23
ATOM     23  O   UNL     1      23.511 -30.113  40.874  1.00  0.00    -0.507 OA
ATOM     24  H   UNL     1      23.563 -31.045  41.204  1.00  0.00     0.293 HD
ENDBRANCH  11  23
BRANCH   9  25
ATOM     25  O   UNL     1      25.675 -29.358  44.996  1.00  0.00    -0.508 OA
ATOM     26  H   UNL     1      25.351 -29.115  45.879  1.00  0.00     0.293 HD
ENDBRANCH   9  25
TORSDOF 5
ENDMDL
