REMARK SMILES COc1ccc2c(c1)[nH]c1c(C)nccc12
REMARK SMILES IDX 3 1 4 2 5 3 6 4 7 5 8 6 9 7 10 8 11 9 12 10 13 11 14 12
REMARK SMILES IDX 15 13 16 14 2 16 1 17
REMARK H PARENT 9 15
ROOT
ATOM      1  C   UNL     1       2.679  -0.008   0.431  1.00  0.00     0.120 A 
ATOM      2  C   UNL     1       2.619  -0.448  -0.890  1.00  0.00     0.047 A 
ATOM      3  C   UNL     1       1.388  -0.564  -1.554  1.00  0.00     0.015 A 
ATOM      4  C   UNL     1       0.196  -0.232  -0.879  1.00  0.00     0.008 A 
ATOM      5  C   UNL     1       0.283   0.204   0.440  1.00  0.00     0.050 A 
ATOM      6  C   UNL     1       1.504   0.326   1.117  1.00  0.00     0.073 A 
ATOM      7  N   UNL     1      -0.998   0.460   0.867  1.00  0.00    -0.353 N 
ATOM      8  C   UNL     1      -1.912   0.204  -0.129  1.00  0.00     0.068 A 
ATOM      9  C   UNL     1      -3.306   0.324  -0.135  1.00  0.00     0.061 A 
ATOM     10  C   UNL     1      -4.118   0.787   1.032  1.00  0.00     0.069 C 
ATOM     11  N   UNL     1      -3.965  -0.004  -1.280  1.00  0.00    -0.259 NA
ATOM     12  C   UNL     1      -3.270  -0.428  -2.357  1.00  0.00     0.112 A 
ATOM     13  C   UNL     1      -1.893  -0.564  -2.405  1.00  0.00     0.031 A 
ATOM     14  C   UNL     1      -1.189  -0.233  -1.239  1.00  0.00     0.011 A 
ATOM     15  H   UNL     1      -1.231   0.783   1.767  1.00  0.00     0.167 HD
ENDROOT
BRANCH   1  16
ATOM     16  O   UNL     1       3.820   0.143   1.174  1.00  0.00    -0.497 OA
ATOM     17  C   UNL     1       5.051  -0.179   0.538  1.00  0.00     0.278 C 
ENDBRANCH   1  16
TORSDOF 1
