REMARK SMILES C#CC[N@@H+](C)[C@H](C)Cc1ccccc1
REMARK SMILES IDX 4 1 5 2 3 4 2 5 1 6 6 7 7 8 8 9 9 10 10 11 14 12 11 13 13 14
REMARK SMILES IDX 12 15
REMARK H PARENT 4 3
ROOT
ATOM      1  N   UNL     1       1.948   0.220  -0.299  1.00  0.00    -0.325 N 
ATOM      2  C   UNL     1       2.528  -0.991  -0.885  1.00  0.00     0.333 C 
ATOM      3  H   UNL     1       1.807   0.867  -1.074  1.00  0.00     0.348 HD
ENDROOT
BRANCH   1   4
ATOM      4  C   UNL     1       2.875   0.841   0.662  1.00  0.00     0.353 C 
ATOM      5  C   UNL     1       4.030   1.454  -0.016  1.00  0.00    -0.047 C 
ATOM      6  C   UNL     1       4.972   1.959  -0.566  1.00  0.00     0.010 C 
ENDBRANCH   1   4
BRANCH   1   7
ATOM      7  C   UNL     1       0.598   0.017   0.290  1.00  0.00     0.185 C 
ATOM      8  C   UNL     1       0.533  -1.099   1.347  1.00  0.00     0.075 C 
BRANCH   7   9
ATOM      9  C   UNL     1      -0.454  -0.205  -0.831  1.00  0.00     0.100 C 
BRANCH   9  10
ATOM     10  C   UNL     1      -1.885  -0.045  -0.364  1.00  0.00    -0.042 A 
ATOM     11  C   UNL     1      -2.702  -1.166  -0.165  1.00  0.00     0.004 A 
ATOM     12  C   UNL     1      -2.412   1.231  -0.120  1.00  0.00     0.004 A 
ATOM     13  C   UNL     1      -4.018  -1.013   0.273  1.00  0.00     0.000 A 
ATOM     14  C   UNL     1      -3.728   1.382   0.318  1.00  0.00     0.000 A 
ATOM     15  C   UNL     1      -4.530   0.260   0.516  1.00  0.00     0.000 A 
ENDBRANCH   9  10
ENDBRANCH   7   9
ENDBRANCH   1   7
TORSDOF 4
