REMARK SMILES O=c1c(O[C@@H]2O[C@H]([C@H](O)CO)[C@H](O)[C@H]2O)c(-c2ccc([O-])c(O)c2)oc2cc(O)cc(O)c12
REMARK SMILES IDX 5 1 6 2 7 3 12 4 14 5 4 6 3 7 1 8 2 9 33 10 16 11 31 12
REMARK SMILES IDX 26 13 25 14 30 15 27 16 28 17 17 18 18 19 24 20 19 21 22 22
REMARK SMILES IDX 20 23 21 24 23 25 32 27 29 29 15 31 8 33 9 34 10 36 11 37
REMARK SMILES IDX 13 39
REMARK H PARENT 23 26 32 28 29 30 15 32 9 35 11 38 13 40
ROOT
ATOM      1  C   UNL     1       0.997   0.480   0.822  1.00  0.00     0.339 C 
ATOM      2  O   UNL     1       1.889  -0.538   1.313  1.00  0.00    -0.332 OA
ATOM      3  C   UNL     1       2.039  -0.357   2.739  1.00  0.00     0.185 C 
ATOM      4  C   UNL     1       1.885   1.155   2.919  1.00  0.00     0.181 C 
ATOM      5  C   UNL     1       0.753   1.475   1.962  1.00  0.00     0.214 C 
ENDROOT
BRANCH   1   6
ATOM      6  O   UNL     1      -0.270  -0.083   0.477  1.00  0.00    -0.454 OA
BRANCH   6   7
ATOM      7  C   UNL     1      -0.537  -0.085  -0.877  1.00  0.00     0.214 A 
ATOM      8  O   UNL     1      -0.368   2.284  -1.075  1.00  0.00    -0.285 OA
ATOM      9  C   UNL     1      -0.576   1.200  -1.621  1.00  0.00     0.239 A 
ATOM     10  C   UNL     1      -0.882   1.129  -3.057  1.00  0.00     0.111 A 
ATOM     11  C   UNL     1      -0.862  -1.208  -1.544  1.00  0.00     0.180 A 
ATOM     12  C   UNL     1      -0.910   2.275  -3.861  1.00  0.00     0.134 A 
ATOM     13  C   UNL     1      -1.150  -0.118  -3.620  1.00  0.00     0.146 A 
ATOM     14  O   UNL     1      -1.150  -1.282  -2.893  1.00  0.00    -0.452 OA
ATOM     15  C   UNL     1      -1.198   2.175  -5.220  1.00  0.00     0.093 A 
ATOM     16  C   UNL     1      -1.440  -0.224  -4.980  1.00  0.00     0.094 A 
ATOM     17  C   UNL     1      -1.461   0.923  -5.769  1.00  0.00     0.123 A 
BRANCH  11  18
ATOM     18  C   UNL     1      -0.903  -2.500  -0.845  1.00  0.00     0.025 A 
ATOM     19  C   UNL     1      -1.897  -2.758   0.107  1.00  0.00     0.012 A 
ATOM     20  C   UNL     1       0.098  -3.445  -1.047  1.00  0.00     0.057 A 
ATOM     21  C   UNL     1      -1.845  -3.916   0.896  1.00  0.00    -0.004 A 
ATOM     22  C   UNL     1       0.121  -4.578  -0.238  1.00  0.00     0.108 A 
ATOM     23  C   UNL     1      -0.809  -4.856   0.788  1.00  0.00    -0.066 A 
ATOM     24  O   UNL     1      -0.680  -5.854   1.577  1.00  0.00    -0.870 OA
BRANCH  22  25
ATOM     25  O   UNL     1       1.145  -5.485  -0.393  1.00  0.00    -0.509 OA
ATOM     26  H   UNL     1       0.884  -6.115   0.324  1.00  0.00     0.293 HD
ENDBRANCH  22  25
ENDBRANCH  11  18
BRANCH  12  27
ATOM     27  O   UNL     1      -0.663   3.533  -3.378  1.00  0.00    -0.507 OA
ATOM     28  H   UNL     1      -0.492   3.462  -2.413  1.00  0.00     0.293 HD
ENDBRANCH  12  27
BRANCH  17  29
ATOM     29  O   UNL     1      -1.749   0.778  -7.094  1.00  0.00    -0.508 OA
ATOM     30  H   UNL     1      -1.724   1.652  -7.517  1.00  0.00     0.293 HD
ENDBRANCH  17  29
ENDBRANCH   6   7
ENDBRANCH   1   6
BRANCH   5  31
ATOM     31  O   UNL     1       0.799   2.843   1.540  1.00  0.00    -0.384 OA
ATOM     32  H   UNL     1       0.236   2.899   0.738  1.00  0.00     0.211 HD
ENDBRANCH   5  31
BRANCH   3  33
ATOM     33  C   UNL     1       1.044  -1.255   3.503  1.00  0.00     0.171 C 
BRANCH  33  34
ATOM     34  O   UNL     1       1.360  -1.307   4.902  1.00  0.00    -0.388 OA
ATOM     35  H   UNL     1       0.865  -2.094   5.218  1.00  0.00     0.211 HD
ENDBRANCH  33  34
BRANCH  33  36
ATOM     36  C   UNL     1       1.058  -2.696   2.970  1.00  0.00     0.190 C 
BRANCH  36  37
ATOM     37  O   UNL     1       0.157  -3.482   3.759  1.00  0.00    -0.394 OA
ATOM     38  H   UNL     1      -0.093  -4.246   3.179  1.00  0.00     0.210 HD
ENDBRANCH  36  37
ENDBRANCH  33  36
ENDBRANCH   3  33
BRANCH   4  39
ATOM     39  O   UNL     1       1.619   1.626   4.228  1.00  0.00    -0.387 OA
ATOM     40  H   UNL     1       1.371   2.563   4.135  1.00  0.00     0.211 HD
ENDBRANCH   4  39
TORSDOF 12
