REMARK SMILES C[C@@H]1O[C@@H](OC[C@H]2O[C@@H](Oc3ccc(-c4oc5cc(O)cc(O)c5c(=O)c4O)cc3)[C@H](O)[C@@H](O)[C@@H]2O)[C@H](O[C@@H]2O[C@H](CO)[C@@H](O)[C@H](O)[C@H]2O)[C@H](O)[C@H]1O
REMARK SMILES IDX 5 1 4 2 2 3 3 4 52 5 50 6 37 7 1 8 53 9 51 11 38 13 39 14
REMARK SMILES IDX 40 15 48 16 41 17 46 18 44 19 49 20 42 22 43 23 47 25 45 27
REMARK SMILES IDX 6 29 7 30 8 31 35 32 9 33 33 34 31 35 36 36 10 38 11 39
REMARK SMILES IDX 12 40 30 41 13 42 29 43 14 44 15 45 16 46 27 47 17 48 25 49
REMARK SMILES IDX 18 50 24 51 26 52 19 53 22 54 21 55 28 56 20 58 23 60 34 62
REMARK SMILES IDX 32 64
REMARK H PARENT 53 10 51 12 49 21 43 24 47 26 45 28 36 37 28 57 20 59 23 61
REMARK H PARENT 34 63 32 65
ROOT
ATOM      1  O   UNL     1      -1.201   2.958   1.702  1.00  0.00    -0.347 OA
ENDROOT
BRANCH   1   2
ATOM      2  C   UNL     1      -0.743   2.788   0.356  1.00  0.00     0.282 C 
ATOM      3  C   UNL     1      -1.873   4.475  -0.877  1.00  0.00     0.150 C 
ATOM      4  O   UNL     1      -0.649   4.076  -0.264  1.00  0.00    -0.344 OA
ATOM      5  C   UNL     1      -2.121   3.615  -2.128  1.00  0.00     0.174 C 
ATOM      6  C   UNL     1      -1.805   2.131  -1.867  1.00  0.00     0.180 C 
ATOM      7  C   UNL     1      -1.707   1.810  -0.370  1.00  0.00     0.209 C 
ATOM      8  C   UNL     1      -1.763   5.953  -1.235  1.00  0.00     0.041 C 
BRANCH   5   9
ATOM      9  O   UNL     1      -3.487   3.758  -2.534  1.00  0.00    -0.388 OA
ATOM     10  H   UNL     1      -3.545   3.423  -3.448  1.00  0.00     0.211 HD
ENDBRANCH   5   9
BRANCH   6  11
ATOM     11  O   UNL     1      -0.586   1.768  -2.537  1.00  0.00    -0.387 OA
ATOM     12  H   UNL     1      -0.353   0.878  -2.195  1.00  0.00     0.211 HD
ENDBRANCH   6  11
BRANCH   7  13
ATOM     13  O   UNL     1      -1.228   0.450  -0.262  1.00  0.00    -0.338 OA
BRANCH  13  14
ATOM     14  C   UNL     1      -2.020  -0.363   0.609  1.00  0.00     0.282 C 
ATOM     15  O   UNL     1      -1.987   0.131   1.944  1.00  0.00    -0.341 OA
ATOM     16  C   UNL     1      -1.428  -1.785   0.557  1.00  0.00     0.202 C 
ATOM     17  C   UNL     1      -2.789  -0.656   2.834  1.00  0.00     0.178 C 
ATOM     18  C   UNL     1      -2.177  -2.696   1.526  1.00  0.00     0.179 C 
ATOM     19  C   UNL     1      -2.218  -2.081   2.926  1.00  0.00     0.177 C 
BRANCH  16  20
ATOM     20  O   UNL     1      -1.508  -2.354  -0.759  1.00  0.00    -0.385 OA
ATOM     21  H   UNL     1      -1.008  -1.740  -1.339  1.00  0.00     0.211 HD
ENDBRANCH  16  20
BRANCH  17  22
ATOM     22  C   UNL     1      -2.836   0.013   4.214  1.00  0.00     0.191 C 
BRANCH  22  23
ATOM     23  O   UNL     1      -3.792  -0.609   5.069  1.00  0.00    -0.394 OA
ATOM     24  H   UNL     1      -3.662  -1.577   4.978  1.00  0.00     0.210 HD
ENDBRANCH  22  23
ENDBRANCH  17  22
BRANCH  18  25
ATOM     25  O   UNL     1      -1.539  -3.982   1.596  1.00  0.00    -0.387 OA
ATOM     26  H   UNL     1      -1.402  -4.245   0.663  1.00  0.00     0.211 HD
ENDBRANCH  18  25
BRANCH  19  27
ATOM     27  O   UNL     1      -3.009  -2.908   3.788  1.00  0.00    -0.387 OA
ATOM     28  H   UNL     1      -2.688  -3.820   3.623  1.00  0.00     0.211 HD
ENDBRANCH  19  27
ENDBRANCH  13  14
ENDBRANCH   7  13
ENDBRANCH   1   2
BRANCH   1  29
ATOM     29  C   UNL     1      -0.182   3.429   2.593  1.00  0.00     0.198 C 
BRANCH  29  30
ATOM     30  C   UNL     1       0.520   2.249   3.286  1.00  0.00     0.180 C 
ATOM     31  O   UNL     1       1.357   1.569   2.347  1.00  0.00    -0.332 OA
ATOM     32  C   UNL     1       1.417   2.730   4.437  1.00  0.00     0.177 C 
ATOM     33  C   UNL     1       1.758   0.270   2.807  1.00  0.00     0.339 C 
ATOM     34  C   UNL     1       2.425   1.632   4.853  1.00  0.00     0.180 C 
ATOM     35  C   UNL     1       2.038   0.235   4.335  1.00  0.00     0.214 C 
BRANCH  32  36
ATOM     36  O   UNL     1       0.610   3.119   5.551  1.00  0.00    -0.387 OA
ATOM     37  H   UNL     1       1.196   3.564   6.190  1.00  0.00     0.211 HD
ENDBRANCH  32  36
BRANCH  33  38
ATOM     38  O   UNL     1       2.981  -0.107   2.141  1.00  0.00    -0.462 OA
BRANCH  38  39
ATOM     39  C   UNL     1       2.711  -0.610   0.897  1.00  0.00     0.123 A 
ATOM     40  C   UNL     1       2.525   0.252  -0.180  1.00  0.00     0.047 A 
ATOM     41  C   UNL     1       2.672  -1.990   0.718  1.00  0.00     0.047 A 
ATOM     42  C   UNL     1       2.231  -0.270  -1.439  1.00  0.00     0.016 A 
ATOM     43  C   UNL     1       2.378  -2.512  -0.544  1.00  0.00     0.016 A 
ATOM     44  C   UNL     1       2.133  -1.656  -1.629  1.00  0.00     0.021 A 
BRANCH  44  45
ATOM     45  C   UNL     1       1.800  -2.213  -2.949  1.00  0.00     0.180 A 
ATOM     46  O   UNL     1       2.769  -3.076  -3.440  1.00  0.00    -0.452 OA
ATOM     47  C   UNL     1       0.656  -1.912  -3.588  1.00  0.00     0.208 A 
ATOM     48  C   UNL     1       2.576  -3.649  -4.673  1.00  0.00     0.146 A 
ATOM     49  C   UNL     1       0.415  -2.513  -4.919  1.00  0.00     0.238 A 
ATOM     50  C   UNL     1       3.580  -4.499  -5.138  1.00  0.00     0.094 A 
ATOM     51  C   UNL     1       1.442  -3.413  -5.449  1.00  0.00     0.111 A 
ATOM     52  O   UNL     1      -0.613  -2.252  -5.539  1.00  0.00    -0.285 OA
ATOM     53  C   UNL     1       3.434  -5.107  -6.382  1.00  0.00     0.123 A 
ATOM     54  C   UNL     1       1.306  -4.030  -6.696  1.00  0.00     0.134 A 
ATOM     55  C   UNL     1       2.304  -4.879  -7.164  1.00  0.00     0.093 A 
BRANCH  47  56
ATOM     56  O   UNL     1      -0.330  -1.082  -3.076  1.00  0.00    -0.502 OA
ATOM     57  H   UNL     1      -0.993  -1.016  -3.801  1.00  0.00     0.293 HD
ENDBRANCH  47  56
BRANCH  53  58
ATOM     58  O   UNL     1       4.388  -5.945  -6.878  1.00  0.00    -0.508 OA
ATOM     59  H   UNL     1       5.123  -6.008  -6.246  1.00  0.00     0.293 HD
ENDBRANCH  53  58
BRANCH  54  60
ATOM     60  O   UNL     1       0.219  -3.843  -7.507  1.00  0.00    -0.507 OA
ATOM     61  H   UNL     1      -0.403  -3.227  -7.063  1.00  0.00     0.293 HD
ENDBRANCH  54  60
ENDBRANCH  44  45
ENDBRANCH  38  39
ENDBRANCH  33  38
BRANCH  34  62
ATOM     62  O   UNL     1       3.741   1.985   4.406  1.00  0.00    -0.387 OA
ATOM     63  H   UNL     1       3.756   1.932   3.429  1.00  0.00     0.211 HD
ENDBRANCH  34  62
BRANCH  35  64
ATOM     64  O   UNL     1       0.872  -0.244   5.026  1.00  0.00    -0.384 OA
ATOM     65  H   UNL     1       1.061  -0.223   5.982  1.00  0.00     0.211 HD
ENDBRANCH  35  64
ENDBRANCH  29  30
ENDBRANCH   1  29
TORSDOF 21
