REMARK SMILES C[C@H]([NH2+]Cc1ccc(OCc2cccc(F)c2)cc1)C(N)=O
REMARK SMILES IDX 5 1 6 2 7 3 8 4 18 5 19 6 4 7 3 8 2 11 1 12 20 13 21 14
REMARK SMILES IDX 22 15 9 18 10 19 11 20 12 21 17 22 13 23 15 24 14 25 16 26
REMARK H PARENT 3 9 3 10 21 16 21 17
ROOT
ATOM      1  C   UNL     1      -0.635   0.240   0.844  1.00  0.00     0.006 A 
ATOM      2  C   UNL     1       0.462   0.320   1.712  1.00  0.00     0.013 A 
ATOM      3  C   UNL     1       1.600  -0.455   1.477  1.00  0.00     0.047 A 
ATOM      4  C   UNL     1       1.666  -1.324   0.386  1.00  0.00     0.119 A 
ATOM      5  C   UNL     1       0.575  -1.411  -0.475  1.00  0.00     0.047 A 
ATOM      6  C   UNL     1      -0.570  -0.638  -0.247  1.00  0.00     0.013 A 
ENDROOT
BRANCH   1   7
ATOM      7  C   UNL     1      -1.876   1.042   1.109  1.00  0.00     0.297 C 
BRANCH   7   8
ATOM      8  N   UNL     1      -2.768   0.330   2.051  1.00  0.00    -0.333 N 
ATOM      9  H   UNL     1      -2.937  -0.633   1.734  1.00  0.00     0.347 HD
ATOM     10  H   UNL     1      -2.269   0.189   2.950  1.00  0.00     0.347 HD
BRANCH   8  11
ATOM     11  C   UNL     1      -4.074   1.013   2.405  1.00  0.00     0.269 C 
ATOM     12  C   UNL     1      -5.136   0.585   1.407  1.00  0.00     0.086 C 
BRANCH  11  13
ATOM     13  C   UNL     1      -4.428   0.627   3.852  1.00  0.00     0.275 C 
ATOM     14  N   UNL     1      -5.624   1.011   4.363  1.00  0.00    -0.365 N 
ATOM     15  O   UNL     1      -3.603   0.009   4.526  1.00  0.00    -0.268 OA
ATOM     16  H   UNL     1      -5.825   0.768   5.330  1.00  0.00     0.159 HD
ATOM     17  H   UNL     1      -6.315   1.582   3.892  1.00  0.00     0.159 HD
ENDBRANCH  11  13
ENDBRANCH   8  11
ENDBRANCH   7   8
ENDBRANCH   1   7
BRANCH   4  18
ATOM     18  O   UNL     1       2.845  -2.003   0.277  1.00  0.00    -0.489 OA
BRANCH  18  19
ATOM     19  C   UNL     1       3.003  -2.964  -0.771  1.00  0.00     0.265 C 
BRANCH  19  20
ATOM     20  C   UNL     1       3.347  -2.337  -2.103  1.00  0.00    -0.008 A 
ATOM     21  C   UNL     1       4.221  -1.241  -2.185  1.00  0.00     0.007 A 
ATOM     22  C   UNL     1       2.834  -2.879  -3.290  1.00  0.00     0.046 A 
ATOM     23  C   UNL     1       4.553  -0.682  -3.422  1.00  0.00     0.003 A 
ATOM     24  C   UNL     1       3.169  -2.313  -4.516  1.00  0.00     0.123 A 
ATOM     25  C   UNL     1       4.021  -1.219  -4.593  1.00  0.00     0.039 A 
ATOM     26  F   UNL     1       2.658  -2.832  -5.639  1.00  0.00    -0.207 F 
ENDBRANCH  19  20
ENDBRANCH  18  19
ENDBRANCH   4  18
TORSDOF 7
