REMARK SMILES O=c1c(O)c(-c2ccc(O)cc2)oc2cc(O[C@@H]3O[C@H](CO)[C@@H](O)[C@H](O)[C@H]3O)cc(O)c12
REMARK SMILES IDX 17 1 16 2 1 3 2 4 3 5 32 6 5 7 30 8 14 9 13 10 29 11 15 12
REMARK SMILES IDX 4 13 6 15 7 16 12 17 8 18 11 19 9 20 10 21 31 23 18 25 19 26
REMARK SMILES IDX 27 27 20 28 25 29 23 30 28 31 21 33 22 34 26 36 24 38
REMARK H PARENT 4 14 10 22 31 24 28 32 22 35 26 37 24 39
ROOT
ATOM      1  O   UNL     1       0.200  -0.094  -2.941  1.00  0.00    -0.462 OA
ENDROOT
BRANCH   1   2
ATOM      2  C   UNL     1       0.122   0.670  -1.810  1.00  0.00     0.130 A 
ATOM      3  O   UNL     1      -0.040   4.591   1.490  1.00  0.00    -0.285 OA
ATOM      4  C   UNL     1      -0.071   3.365   1.520  1.00  0.00     0.238 A 
ATOM      5  C   UNL     1      -0.198   2.712   2.848  1.00  0.00     0.208 A 
ATOM      6  C   UNL     1       0.004   2.477   0.343  1.00  0.00     0.111 A 
ATOM      7  C   UNL     1      -0.249   1.371   2.918  1.00  0.00     0.180 A 
ATOM      8  C   UNL     1       0.146   2.947  -0.966  1.00  0.00     0.134 A 
ATOM      9  C   UNL     1      -0.071   1.102   0.562  1.00  0.00     0.146 A 
ATOM     10  O   UNL     1      -0.204   0.541   1.809  1.00  0.00    -0.452 OA
ATOM     11  C   UNL     1       0.207   2.047  -2.034  1.00  0.00     0.093 A 
ATOM     12  C   UNL     1      -0.010   0.200  -0.506  1.00  0.00     0.094 A 
BRANCH   5  13
ATOM     13  O   UNL     1      -0.274   3.554   3.945  1.00  0.00    -0.502 OA
ATOM     14  H   UNL     1      -0.232   4.457   3.562  1.00  0.00     0.293 HD
ENDBRANCH   5  13
BRANCH   7  15
ATOM     15  C   UNL     1      -0.384   0.628   4.189  1.00  0.00     0.021 A 
ATOM     16  C   UNL     1       0.426   0.911   5.299  1.00  0.00     0.016 A 
ATOM     17  C   UNL     1      -1.315  -0.420   4.289  1.00  0.00     0.016 A 
ATOM     18  C   UNL     1       0.299   0.176   6.481  1.00  0.00     0.047 A 
ATOM     19  C   UNL     1      -1.444  -1.156   5.471  1.00  0.00     0.047 A 
ATOM     20  C   UNL     1      -0.634  -0.849   6.558  1.00  0.00     0.115 A 
BRANCH  20  21
ATOM     21  O   UNL     1      -0.725  -1.540   7.730  1.00  0.00    -0.508 OA
ATOM     22  H   UNL     1      -1.425  -2.208   7.642  1.00  0.00     0.293 HD
ENDBRANCH  20  21
ENDBRANCH   7  15
BRANCH   8  23
ATOM     23  O   UNL     1       0.228   4.285  -1.227  1.00  0.00    -0.507 OA
ATOM     24  H   UNL     1       0.327   4.436  -2.180  1.00  0.00     0.293 HD
ENDBRANCH   8  23
ENDBRANCH   1   2
BRANCH   1  25
ATOM     25  C   UNL     1      -0.116  -1.493  -2.833  1.00  0.00     0.339 C 
ATOM     26  O   UNL     1       0.980  -2.175  -2.213  1.00  0.00    -0.332 OA
ATOM     27  C   UNL     1      -0.356  -2.015  -4.263  1.00  0.00     0.214 C 
ATOM     28  C   UNL     1       1.072  -3.593  -2.441  1.00  0.00     0.179 C 
ATOM     29  C   UNL     1      -0.736  -3.503  -4.240  1.00  0.00     0.180 C 
ATOM     30  C   UNL     1      -0.200  -4.239  -3.006  1.00  0.00     0.177 C 
BRANCH  27  31
ATOM     31  O   UNL     1      -1.403  -1.296  -4.938  1.00  0.00    -0.384 OA
ATOM     32  H   UNL     1      -1.360  -1.571  -5.872  1.00  0.00     0.211 HD
ENDBRANCH  27  31
BRANCH  28  33
ATOM     33  C   UNL     1       2.302  -3.846  -3.325  1.00  0.00     0.191 C 
BRANCH  33  34
ATOM     34  O   UNL     1       3.470  -3.342  -2.677  1.00  0.00    -0.394 OA
ATOM     35  H   UNL     1       3.226  -2.459  -2.333  1.00  0.00     0.210 HD
ENDBRANCH  33  34
ENDBRANCH  28  33
BRANCH  29  36
ATOM     36  O   UNL     1      -0.247  -4.110  -5.444  1.00  0.00    -0.387 OA
ATOM     37  H   UNL     1      -0.715  -4.956  -5.565  1.00  0.00     0.211 HD
ENDBRANCH  29  36
BRANCH  30  38
ATOM     38  O   UNL     1      -1.205  -4.205  -1.979  1.00  0.00    -0.387 OA
ATOM     39  H   UNL     1      -1.922  -4.813  -2.232  1.00  0.00     0.211 HD
ENDBRANCH  30  38
ENDBRANCH   1  25
TORSDOF 11
