REMARK SMILES C#CC[NH2+][C@@H]1CCc2ccccc21
REMARK SMILES IDX 1 1 2 2 3 3 4 4 5 7 6 8 13 9 7 10 12 11 8 12 11 13 9 14
REMARK SMILES IDX 10 15
REMARK H PARENT 4 5 4 6
ROOT
ATOM      1  C   UNL     1      -0.944   0.926  -2.988  1.00  0.00     0.010 C 
ATOM      2  C   UNL     1      -1.679   0.667  -2.073  1.00  0.00    -0.047 C 
ATOM      3  C   UNL     1      -2.582   0.372  -0.970  1.00  0.00     0.352 C 
ENDROOT
BRANCH   3   4
ATOM      4  N   UNL     1      -2.086  -0.780  -0.167  1.00  0.00    -0.330 N 
ATOM      5  H   UNL     1      -2.844  -1.054   0.466  1.00  0.00     0.347 HD
ATOM      6  H   UNL     1      -1.970  -1.569  -0.812  1.00  0.00     0.347 HD
BRANCH   4   7
ATOM      7  C   UNL     1      -0.841  -0.684   0.645  1.00  0.00     0.214 C 
ATOM      8  C   UNL     1      -0.726   0.616   1.460  1.00  0.00     0.075 C 
ATOM      9  C   UNL     1       0.468  -0.720  -0.080  1.00  0.00     0.012 A 
ATOM     10  C   UNL     1       0.772   0.777   1.768  1.00  0.00     0.042 C 
ATOM     11  C   UNL     1       0.863  -1.494  -1.162  1.00  0.00     0.010 A 
ATOM     12  C   UNL     1       1.384   0.126   0.565  1.00  0.00    -0.039 A 
ATOM     13  C   UNL     1       2.178  -1.376  -1.618  1.00  0.00     0.001 A 
ATOM     14  C   UNL     1       2.692   0.237   0.126  1.00  0.00     0.004 A 
ATOM     15  C   UNL     1       3.084  -0.514  -0.982  1.00  0.00     0.000 A 
ENDBRANCH   4   7
ENDBRANCH   3   4
TORSDOF 2
