REMARK SMILES O=c1c(O[C@@H]2O[C@H](CO)[C@@H](O)[C@H](O)[C@H]2O)c(-c2ccc(O)cc2)oc2cc(O)cc(O)c12
REMARK SMILES IDX 4 1 3 2 1 3 2 4 32 5 16 6 30 7 25 8 24 9 29 10 26 11 27 12
REMARK SMILES IDX 17 13 18 14 23 15 19 16 22 17 20 18 21 19 31 21 28 23 5 25
REMARK SMILES IDX 6 26 14 27 7 28 12 29 10 30 15 31 8 33 9 34 13 36 11 38
REMARK H PARENT 21 20 31 22 28 24 15 32 9 35 13 37 11 39
ROOT
ATOM      1  O   UNL     1      -0.695  -0.054   0.965  1.00  0.00    -0.454 OA
ENDROOT
BRANCH   1   2
ATOM      2  C   UNL     1       0.059   0.557  -0.019  1.00  0.00     0.214 A 
ATOM      3  O   UNL     1       1.576   1.309   1.600  1.00  0.00    -0.285 OA
ATOM      4  C   UNL     1       1.268   1.309   0.412  1.00  0.00     0.239 A 
ATOM      5  C   UNL     1       2.034   2.001  -0.649  1.00  0.00     0.111 A 
ATOM      6  C   UNL     1      -0.270   0.541  -1.323  1.00  0.00     0.180 A 
ATOM      7  C   UNL     1       3.182   2.763  -0.393  1.00  0.00     0.134 A 
ATOM      8  C   UNL     1       1.582   1.875  -1.965  1.00  0.00     0.146 A 
ATOM      9  O   UNL     1       0.472   1.152  -2.318  1.00  0.00    -0.452 OA
ATOM     10  C   UNL     1       3.863   3.387  -1.441  1.00  0.00     0.093 A 
ATOM     11  C   UNL     1       2.261   2.497  -3.017  1.00  0.00     0.094 A 
ATOM     12  C   UNL     1       3.396   3.248  -2.743  1.00  0.00     0.123 A 
BRANCH   6  13
ATOM     13  C   UNL     1      -1.444  -0.191  -1.840  1.00  0.00     0.021 A 
ATOM     14  C   UNL     1      -2.727   0.002  -1.304  1.00  0.00     0.016 A 
ATOM     15  C   UNL     1      -1.287  -1.097  -2.901  1.00  0.00     0.016 A 
ATOM     16  C   UNL     1      -3.825  -0.706  -1.802  1.00  0.00     0.047 A 
ATOM     17  C   UNL     1      -2.383  -1.802  -3.401  1.00  0.00     0.047 A 
ATOM     18  C   UNL     1      -3.641  -1.604  -2.846  1.00  0.00     0.115 A 
BRANCH  18  19
ATOM     19  O   UNL     1      -4.682  -2.317  -3.362  1.00  0.00    -0.508 OA
ATOM     20  H   UNL     1      -5.474  -2.142  -2.828  1.00  0.00     0.293 HD
ENDBRANCH  18  19
ENDBRANCH   6  13
BRANCH   7  21
ATOM     21  O   UNL     1       3.655   2.912   0.879  1.00  0.00    -0.507 OA
ATOM     22  H   UNL     1       4.456   3.462   0.877  1.00  0.00     0.293 HD
ENDBRANCH   7  21
BRANCH  12  23
ATOM     23  O   UNL     1       4.092   3.874  -3.734  1.00  0.00    -0.508 OA
ATOM     24  H   UNL     1       3.662   3.700  -4.588  1.00  0.00     0.293 HD
ENDBRANCH  12  23
ENDBRANCH   1   2
BRANCH   1  25
ATOM     25  C   UNL     1      -0.105  -1.295   1.393  1.00  0.00     0.339 C 
ATOM     26  O   UNL     1      -0.918  -2.353   0.894  1.00  0.00    -0.332 OA
ATOM     27  C   UNL     1      -0.120  -1.304   2.941  1.00  0.00     0.214 C 
ATOM     28  C   UNL     1      -0.372  -3.662   1.157  1.00  0.00     0.179 C 
ATOM     29  C   UNL     1      -0.045  -2.736   3.510  1.00  0.00     0.180 C 
ATOM     30  C   UNL     1       0.448  -3.743   2.462  1.00  0.00     0.177 C 
BRANCH  27  31
ATOM     31  O   UNL     1       0.971  -0.545   3.491  1.00  0.00    -0.384 OA
ATOM     32  H   UNL     1       1.108   0.252   2.926  1.00  0.00     0.211 HD
ENDBRANCH  27  31
BRANCH  28  33
ATOM     33  C   UNL     1      -1.569  -4.620   1.164  1.00  0.00     0.191 C 
BRANCH  33  34
ATOM     34  O   UNL     1      -2.218  -4.585  -0.111  1.00  0.00    -0.394 OA
ATOM     35  H   UNL     1      -2.298  -3.637  -0.339  1.00  0.00     0.210 HD
ENDBRANCH  33  34
ENDBRANCH  28  33
BRANCH  29  36
ATOM     36  O   UNL     1      -1.315  -3.159   4.016  1.00  0.00    -0.387 OA
ATOM     37  H   UNL     1      -1.556  -2.542   4.731  1.00  0.00     0.211 HD
ENDBRANCH  29  36
BRANCH  30  38
ATOM     38  O   UNL     1       1.821  -3.461   2.140  1.00  0.00    -0.387 OA
ATOM     39  H   UNL     1       2.326  -3.435   2.973  1.00  0.00     0.211 HD
ENDBRANCH  30  38
ENDBRANCH   1  25
TORSDOF 11
