REMARK SMILES O=c1c([O-])c(-c2ccc(O)cc2)oc2cc(O)cc(O)c12
REMARK SMILES IDX 1 1 2 2 3 3 4 4 5 5 13 6 14 7 15 8 16 9 18 10 19 11 21 12
REMARK SMILES IDX 6 13 7 14 12 15 8 16 11 17 9 18 10 19 20 21 17 23
REMARK H PARENT 10 20 20 22 17 24
ROOT
ATOM      1  O   UNL     1      -3.643   0.101   0.607  1.00  0.00    -0.290 OA
ATOM      2  C   UNL     1      -2.477  -0.041   0.225  1.00  0.00     0.189 A 
ATOM      3  C   UNL     1      -1.238   0.096   1.107  1.00  0.00    -0.014 A 
ATOM      4  O   UNL     1      -1.468   0.406   2.315  1.00  0.00    -0.867 OA
ATOM      5  C   UNL     1      -0.062  -0.131   0.456  1.00  0.00     0.130 A 
ATOM      6  O   UNL     1       0.089  -0.447  -0.885  1.00  0.00    -0.456 OA
ATOM      7  C   UNL     1      -1.014  -0.555  -1.676  1.00  0.00     0.146 A 
ATOM      8  C   UNL     1      -0.803  -0.869  -3.022  1.00  0.00     0.094 A 
ATOM      9  C   UNL     1      -1.891  -0.993  -3.880  1.00  0.00     0.123 A 
ATOM     10  C   UNL     1      -3.188  -0.809  -3.415  1.00  0.00     0.093 A 
ATOM     11  C   UNL     1      -3.386  -0.497  -2.071  1.00  0.00     0.134 A 
ATOM     12  C   UNL     1      -2.296  -0.368  -1.195  1.00  0.00     0.106 A 
ENDROOT
BRANCH   5  13
ATOM     13  C   UNL     1       1.266  -0.056   1.129  1.00  0.00     0.017 A 
ATOM     14  C   UNL     1       1.513  -0.699   2.352  1.00  0.00     0.016 A 
ATOM     15  C   UNL     1       2.330   0.623   0.510  1.00  0.00     0.016 A 
ATOM     16  C   UNL     1       2.774  -0.652   2.952  1.00  0.00     0.047 A 
ATOM     17  C   UNL     1       3.596   0.668   1.103  1.00  0.00     0.047 A 
ATOM     18  C   UNL     1       3.806   0.034   2.320  1.00  0.00     0.115 A 
BRANCH  18  19
ATOM     19  O   UNL     1       5.050   0.106   2.876  1.00  0.00    -0.508 OA
ATOM     20  H   UNL     1       4.997  -0.303   3.755  1.00  0.00     0.293 HD
ENDBRANCH  18  19
ENDBRANCH   5  13
BRANCH  11  21
ATOM     21  O   UNL     1      -4.687  -0.328  -1.668  1.00  0.00    -0.507 OA
ATOM     22  H   UNL     1      -4.646  -0.117  -0.701  1.00  0.00     0.293 HD
ENDBRANCH  11  21
BRANCH   9  23
ATOM     23  O   UNL     1      -1.645  -1.299  -5.186  1.00  0.00    -0.508 OA
ATOM     24  H   UNL     1      -2.498  -1.350  -5.648  1.00  0.00     0.293 HD
ENDBRANCH   9  23
TORSDOF 4
