REMARK SMILES CC[C@](C)(O)C#Cc1cc2c(ccn2-c2cc(OC)nc(N)n2)cn1
REMARK SMILES IDX 7 1 8 2 9 3 10 4 11 5 12 6 13 7 14 8 24 9 25 10 6 11 3 12
REMARK SMILES IDX 4 13 2 14 1 15 5 16 15 18 16 19 23 20 17 21 21 22 20 23
REMARK SMILES IDX 18 24 19 25 22 26
REMARK H PARENT 5 17 22 27 22 28
ROOT
ATOM      1  C   UNL     1       1.514   0.453   1.488  1.00  0.00    -0.044 C 
ATOM      2  C   UNL     1       1.228   0.668   0.105  1.00  0.00     0.115 A 
ATOM      3  C   UNL     1       0.389  -0.197  -0.585  1.00  0.00     0.065 A 
ATOM      4  C   UNL     1       0.159   0.104  -1.937  1.00  0.00     0.059 A 
ATOM      5  C   UNL     1       0.836   1.183  -2.530  1.00  0.00     0.018 A 
ATOM      6  C   UNL     1       0.530   1.173  -3.912  1.00  0.00     0.030 A 
ATOM      7  C   UNL     1      -0.305   0.109  -4.139  1.00  0.00     0.094 A 
ATOM      8  N   UNL     1      -0.617  -0.499  -2.933  1.00  0.00    -0.301 N 
ATOM      9  C   UNL     1       1.659   2.000  -1.741  1.00  0.00     0.122 A 
ATOM     10  N   UNL     1       1.839   1.743  -0.427  1.00  0.00    -0.247 NA
ENDROOT
BRANCH   1  11
ATOM     11  C   UNL     1       1.759   0.275   2.651  1.00  0.00    -0.062 C 
ATOM     12  C   UNL     1       2.073   0.064   4.074  1.00  0.00     0.122 C 
ATOM     13  C   UNL     1       0.794  -0.188   4.871  1.00  0.00     0.057 C 
BRANCH  12  14
ATOM     14  C   UNL     1       2.906   1.227   4.646  1.00  0.00     0.045 C 
ATOM     15  C   UNL     1       2.193   2.571   4.710  1.00  0.00     0.008 C 
ENDBRANCH  12  14
BRANCH  12  16
ATOM     16  O   UNL     1       2.866  -1.123   4.181  1.00  0.00    -0.378 OA
ATOM     17  H   UNL     1       3.623  -1.010   3.580  1.00  0.00     0.212 HD
ENDBRANCH  12  16
ENDBRANCH   1  11
BRANCH   8  18
ATOM     18  C   UNL     1      -1.583  -1.553  -2.833  1.00  0.00     0.146 A 
ATOM     19  C   UNL     1      -2.178  -1.867  -1.635  1.00  0.00     0.116 A 
ATOM     20  N   UNL     1      -1.915  -2.187  -3.983  1.00  0.00    -0.195 NA
ATOM     21  C   UNL     1      -3.091  -2.894  -1.681  1.00  0.00     0.220 A 
ATOM     22  C   UNL     1      -2.822  -3.162  -3.913  1.00  0.00     0.225 A 
ATOM     23  N   UNL     1      -3.415  -3.567  -2.794  1.00  0.00    -0.177 NA
BRANCH  21  24
ATOM     24  O   UNL     1      -3.693  -3.216  -0.478  1.00  0.00    -0.481 OA
ATOM     25  C   UNL     1      -4.658  -4.258  -0.594  1.00  0.00     0.280 C 
ENDBRANCH  21  24
BRANCH  22  26
ATOM     26  N   UNL     1      -3.135  -3.825  -5.080  1.00  0.00    -0.368 N 
ATOM     27  H   UNL     1      -2.377  -3.742  -5.742  1.00  0.00     0.159 HD
ATOM     28  H   UNL     1      -3.474  -4.754  -4.874  1.00  0.00     0.159 HD
ENDBRANCH  22  26
ENDBRANCH   8  18
TORSDOF 6
