REMARK SMILES C#CC[N@H+](C)[C@H](C)Cc1ccccc1
REMARK SMILES IDX 4 1 5 2 3 4 2 5 1 6 6 7 7 8 8 9 9 10 10 11 14 12 11 13 13 14
REMARK SMILES IDX 12 15
REMARK H PARENT 4 3
ROOT
ATOM      1  N   UNL     1      -1.737   0.313   1.009  1.00  0.00    -0.325 N 
ATOM      2  C   UNL     1      -1.363   0.453   2.459  1.00  0.00     0.333 C 
ATOM      3  H   UNL     1      -2.619  -0.217   0.997  1.00  0.00     0.348 HD
ENDROOT
BRANCH   1   4
ATOM      4  C   UNL     1      -2.105   1.653   0.406  1.00  0.00     0.353 C 
ATOM      5  C   UNL     1      -2.951   1.434  -0.767  1.00  0.00    -0.047 C 
ATOM      6  C   UNL     1      -3.650   1.256  -1.728  1.00  0.00     0.010 C 
ENDBRANCH   1   4
BRANCH   1   7
ATOM      7  C   UNL     1      -0.748  -0.500   0.151  1.00  0.00     0.185 C 
ATOM      8  C   UNL     1      -0.914  -1.984   0.495  1.00  0.00     0.075 C 
BRANCH   7   9
ATOM      9  C   UNL     1       0.704  -0.004   0.323  1.00  0.00     0.100 C 
BRANCH   9  10
ATOM     10  C   UNL     1       1.631  -0.553  -0.734  1.00  0.00    -0.042 A 
ATOM     11  C   UNL     1       2.512  -1.601  -0.433  1.00  0.00     0.004 A 
ATOM     12  C   UNL     1       1.614  -0.029  -2.035  1.00  0.00     0.004 A 
ATOM     13  C   UNL     1       3.354  -2.119  -1.418  1.00  0.00     0.000 A 
ATOM     14  C   UNL     1       2.458  -0.550  -3.017  1.00  0.00     0.000 A 
ATOM     15  C   UNL     1       3.326  -1.595  -2.708  1.00  0.00     0.000 A 
ENDBRANCH   9  10
ENDBRANCH   7   9
ENDBRANCH   1   7
TORSDOF 4
