REMARK SMILES O=c1c([O-])c(-c2ccc(O)c(O)c2)oc2cc(O)cc(O)c12
REMARK SMILES IDX 1 1 2 2 3 3 4 4 5 5 14 6 15 7 16 8 17 9 19 10 20 11 22 12
REMARK SMILES IDX 6 13 7 14 13 15 8 16 11 17 9 18 12 19 10 21 21 23 18 25
REMARK H PARENT 12 20 10 22 21 24 18 26
ROOT
ATOM      1  O   UNL     1      -1.542  -3.079   1.811  1.00  0.00    -0.290 OA
ATOM      2  C   UNL     1      -1.192  -2.139   1.090  1.00  0.00     0.189 A 
ATOM      3  C   UNL     1       0.236  -1.612   0.962  1.00  0.00    -0.014 A 
ATOM      4  O   UNL     1       1.095  -2.201   1.688  1.00  0.00    -0.867 OA
ATOM      5  C   UNL     1       0.376  -0.577   0.086  1.00  0.00     0.130 A 
ATOM      6  O   UNL     1      -0.635   0.013  -0.655  1.00  0.00    -0.456 OA
ATOM      7  C   UNL     1      -1.911  -0.447  -0.534  1.00  0.00     0.146 A 
ATOM      8  C   UNL     1      -2.886   0.193  -1.305  1.00  0.00     0.094 A 
ATOM      9  C   UNL     1      -4.210  -0.232  -1.227  1.00  0.00     0.123 A 
ATOM     10  C   UNL     1      -4.570  -1.283  -0.393  1.00  0.00     0.093 A 
ATOM     11  C   UNL     1      -3.589  -1.913   0.370  1.00  0.00     0.134 A 
ATOM     12  C   UNL     1      -2.251  -1.495   0.301  1.00  0.00     0.106 A 
ENDROOT
BRANCH   5  13
ATOM     13  C   UNL     1       1.688   0.080  -0.195  1.00  0.00     0.021 A 
ATOM     14  C   UNL     1       1.763   1.482  -0.327  1.00  0.00     0.016 A 
ATOM     15  C   UNL     1       2.858  -0.671  -0.387  1.00  0.00     0.062 A 
ATOM     16  C   UNL     1       2.971   2.118  -0.632  1.00  0.00     0.051 A 
ATOM     17  C   UNL     1       4.060  -0.032  -0.671  1.00  0.00     0.158 A 
ATOM     18  C   UNL     1       4.112   1.351  -0.802  1.00  0.00     0.157 A 
BRANCH  17  19
ATOM     19  O   UNL     1       5.224  -0.740  -0.818  1.00  0.00    -0.504 OA
ATOM     20  H   UNL     1       5.021  -1.646  -0.518  1.00  0.00     0.293 HD
ENDBRANCH  17  19
BRANCH  18  21
ATOM     21  O   UNL     1       5.300   1.961  -1.091  1.00  0.00    -0.504 OA
ATOM     22  H   UNL     1       5.932   1.215  -1.130  1.00  0.00     0.293 HD
ENDBRANCH  18  21
ENDBRANCH   5  13
BRANCH  11  23
ATOM     23  O   UNL     1      -4.002  -2.945   1.175  1.00  0.00    -0.507 OA
ATOM     24  H   UNL     1      -3.190  -3.274   1.636  1.00  0.00     0.293 HD
ENDBRANCH  11  23
BRANCH   9  25
ATOM     25  O   UNL     1      -5.189   0.367  -1.965  1.00  0.00    -0.508 OA
ATOM     26  H   UNL     1      -4.782   1.072  -2.495  1.00  0.00     0.293 HD
ENDBRANCH   9  25
TORSDOF 5
