REMARK SMILES C#CC[NH2+][C@@H]1CCc2ccccc21
REMARK SMILES IDX 1 1 2 2 3 3 4 4 5 7 6 8 13 9 7 10 12 11 8 12 11 13 9 14
REMARK SMILES IDX 10 15
REMARK H PARENT 4 5 4 6
ROOT
ATOM      1  C   UNL     1       4.751   1.766   0.188  1.00  0.00     0.010 C 
ATOM      2  C   UNL     1       3.913   0.905   0.204  1.00  0.00    -0.047 C 
ATOM      3  C   UNL     1       2.889  -0.147   0.222  1.00  0.00     0.352 C 
ENDROOT
BRANCH   3   4
ATOM      4  N   UNL     1       1.568   0.465   0.259  1.00  0.00    -0.330 N 
ATOM      5  H   UNL     1       1.450   1.040  -0.574  1.00  0.00     0.347 HD
ATOM      6  H   UNL     1       1.508   1.023   1.111  1.00  0.00     0.347 HD
BRANCH   4   7
ATOM      7  C   UNL     1       0.498  -0.525   0.300  1.00  0.00     0.214 C 
ATOM      8  C   UNL     1       0.333  -1.334  -1.006  1.00  0.00     0.075 C 
ATOM      9  C   UNL     1      -0.871   0.099   0.403  1.00  0.00     0.012 A 
ATOM     10  C   UNL     1      -1.140  -1.763  -1.065  1.00  0.00     0.042 C 
ATOM     11  C   UNL     1      -1.273   1.181   1.171  1.00  0.00     0.010 A 
ATOM     12  C   UNL     1      -1.798  -0.614  -0.369  1.00  0.00    -0.039 A 
ATOM     13  C   UNL     1      -2.618   1.556   1.144  1.00  0.00     0.001 A 
ATOM     14  C   UNL     1      -3.137  -0.259  -0.392  1.00  0.00     0.004 A 
ATOM     15  C   UNL     1      -3.543   0.840   0.368  1.00  0.00     0.000 A 
ENDBRANCH   4   7
ENDBRANCH   3   4
TORSDOF 2
